 Entering Gaussian System, Link 0=XXXXXXX/x86_64/g09a02/g09/g09
 Initial command:
 XXXXXXX/x86_64/g09a02/g09/l1.exe /tmp/pbs.183839.pbs/Gau-6630.inp -scrdir=/tmp/pbs.183839.pbs/
 Entering Link 1 = XXXXXXX/x86_64/g09a02/g09/l1.exe PID=      6640.
  
 Copyright (c) 1988,1990,1992,1993,1995,1998,2003,2009, Gaussian, Inc.
                  All Rights Reserved.
  
 This is part of the Gaussian(R) 09 program.  It is based on
 the Gaussian(R) 03 system (copyright 2003, Gaussian, Inc.),
 the Gaussian(R) 98 system (copyright 1998, Gaussian, Inc.),
 the Gaussian(R) 94 system (copyright 1995, Gaussian, Inc.),
 the Gaussian 92(TM) system (copyright 1992, Gaussian, Inc.),
 the Gaussian 90(TM) system (copyright 1990, Gaussian, Inc.),
 the Gaussian 88(TM) system (copyright 1988, Gaussian, Inc.),
 the Gaussian 86(TM) system (copyright 1986, Carnegie Mellon
 University), and the Gaussian 82(TM) system (copyright 1983,
 Carnegie Mellon University). Gaussian is a federally registered
 trademark of Gaussian, Inc.
  
 This software contains proprietary and confidential information,
 including trade secrets, belonging to Gaussian, Inc.
  
 This software is provided under written license and may be
 used, copied, transmitted, or stored only in accord with that
 written license.
  
 The following legend is applicable only to US Government
 contracts under FAR:
  
                    RESTRICTED RIGHTS LEGEND
  
 Use, reproduction and disclosure by the US Government is
 subject to restrictions as set forth in subparagraphs (a)
 and (c) of the Commercial Computer Software - Restricted
 Rights clause in FAR 52.227-19.
  
 Gaussian, Inc.
 340 Quinnipiac St., Bldg. 40, Wallingford CT 06492
  
  
 ---------------------------------------------------------------
 Warning -- This program may not be used in any manner that
 competes with the business of Gaussian, Inc. or will provide
 assistance to any competitor of Gaussian, Inc.  The licensee
 of this program is prohibited from giving any competitor of
 Gaussian, Inc. access to this program.  By using this program,
 the user acknowledges that Gaussian, Inc. is engaged in the
 business of creating and licensing software in the field of
 computational chemistry and represents and warrants to the
 licensee that it is not a competitor of Gaussian, Inc. and that
 it will not use this program in any manner prohibited above.
 ---------------------------------------------------------------
  

 Cite this work as:
 Gaussian 09, Revision A.02,
 M. J. Frisch, G. W. Trucks, H. B. Schlegel, G. E. Scuseria, 
 M. A. Robb, J. R. Cheeseman, G. Scalmani, V. Barone, B. Mennucci, 
 G. A. Petersson, H. Nakatsuji, M. Caricato, X. Li, H. P. Hratchian, 
 A. F. Izmaylov, J. Bloino, G. Zheng, J. L. Sonnenberg, M. Hada, 
 M. Ehara, K. Toyota, R. Fukuda, J. Hasegawa, M. Ishida, T. Nakajima, 
 Y. Honda, O. Kitao, H. Nakai, T. Vreven, J. A. Montgomery, Jr., 
 J. E. Peralta, F. Ogliaro, M. Bearpark, J. J. Heyd, E. Brothers, 
 K. N. Kudin, V. N. Staroverov, R. Kobayashi, J. Normand, 
 K. Raghavachari, A. Rendell, J. C. Burant, S. S. Iyengar, J. Tomasi, 
 M. Cossi, N. Rega, J. M. Millam, M. Klene, J. E. Knox, J. B. Cross, 
 V. Bakken, C. Adamo, J. Jaramillo, R. Gomperts, R. E. Stratmann, 
 O. Yazyev, A. J. Austin, R. Cammi, C. Pomelli, J. W. Ochterski, 
 R. L. Martin, K. Morokuma, V. G. Zakrzewski, G. A. Voth, 
 P. Salvador, J. J. Dannenberg, S. Dapprich, A. D. Daniels, 
 O. Farkas, J. B. Foresman, J. V. Ortiz, J. Cioslowski, 
 and D. J. Fox, Gaussian, Inc., Wallingford CT, 2009.
 
 ******************************************
 Gaussian 09:  AM64L-G09RevA.02 11-Jun-2009
                 8-Nov-2009 
 ******************************************
 %chk=mmp2_full_r_06_final_4ESP.chk
 %mem=3000MB
 %nprocshared=4
 Will use up to    4 processors via shared memory.
 ---------------------------------------------------------
 #p hf/6-31g(d) iop(6/33=2) pop=mk sp test scf=(xqc,tight)
 ---------------------------------------------------------
 1/38=1/1;
 2/12=2,17=6,18=5,40=1/2;
 3/5=1,6=6,7=1,11=9,16=1,25=1,30=1/1,2,3;
 4//1;
 5/5=2,8=3,13=1,32=2,38=5/2,8;
 6/7=2,8=2,9=2,10=2,15=8,20=1,28=1,33=2/1,2;
 99/5=1,9=1/99;
 Leave Link    1 at Sun Nov  8 11:51:08 2009, MaxMem=  393216000 cpu:       0.1
 (Enter XXXXXXX/x86_64/g09a02/g09/l101.exe)
 ----------------------------------------------------------------------
 Gaussian Calc for RESP fitting based on mmp2_full_r_06_final.log two-l
 ayer oniom calculation. H(igh) layer is extracted. There are 5 capping
  atoms.
 ----------------------------------------------------------------------
 Symbolic Z-matrix:
 Charge =  1 Multiplicity = 1
 C                     51.48688   37.98645   51.54435 
 N                     52.28587   37.79928   52.67497 
 H                     53.28323   37.80728   52.72584 
 C                     51.47303   37.57608   53.77171 
 H                     51.81168   37.39694   54.79947 
 N                     50.17294   37.66477   53.34237 
 C                     50.1638   37.9036   51.96782 
 H                     49.22111   38.10928   51.35396 
 C                     47.52497   38.55787   48.17437 
 H                     48.46446   39.09221   47.9792 
 H                     46.73311   39.10997   47.65392 
 C                     47.232    38.5088   49.66275 
 O                     48.04323   39.05721   50.4911 
 O                     46.22355   37.9246   50.13253 
 C                     47.57921   33.56981   52.24273 
 N                     47.32258   33.21077   53.56795 
 H                     46.88743   32.39872   53.94826 
 C                     47.67295   34.26063   54.3951 
 H                     47.56241   34.28702   55.48384 
 N                     48.17304   35.25917   53.60365 
 C                     48.11631   34.85129   52.27225 
 H                     48.43218   35.49235   51.44048 
 C                     49.6913   35.80636   58.14214 
 N                     48.49261   36.44175   58.48716 
 H                     47.99328   36.41588   59.34903 
 C                     47.98433   37.08832   57.37099 
 H                     47.03505   37.65193   57.31926 
 N                     48.87996   36.9157   56.35175 
 C                     49.92682   36.11941   56.81041 
 H                     50.75574   35.83892   56.15599 
 Zn                    48.54083   37.06925   54.37787 
 C                     45.52426   38.62353   52.81513 
 H                     45.90474   38.26295   51.79467 
 H                     44.46814   38.34912   52.91703 
 S                     46.53726   38.42208   54.34637 
 C                     45.96153   39.95908   53.29554 
 H                     45.27123   40.52441   53.95847 
 C                     46.78379   40.80725   52.41166 
 H                     47.45725   40.14217   51.73979 
 H                     46.06704   41.14781   51.62418 
 S                     47.53342   42.28925   53.14871 
 O                     47.87721   42.03518   54.56611 
 O                     46.60819   43.40667   52.89214 
 O                     44.38951   37.11268   56.86572 
 H                     44.89482   37.43423   56.11479 
 H                     44.89065   36.33584   57.16798 
 H                     51.86471   38.17654   50.53042 
 H                     47.59384   37.55808   47.68305 
 H                     47.32313   32.95261   51.37899 
 H                     50.30639   35.18254   58.80246 
 H                     48.6307   42.44606   52.50955 
 
 NAtoms=     51 NQM=     51 NQMF=      0 NMic=      0 NMicF=      0 NTot=     51.
                    Isotopes and Nuclear Properties:
 (Nuclear quadrupole moments (NQMom) in fm**2, nuclear magnetic moments (NMagM)
  in nuclear magnetons)

  Atom         1           2           3           4           5           6           7           8           9          10
 IAtWgt=          12          14           1          12           1          14          12           1          12           1
 AtmWgt=  12.0000000  14.0030740   1.0078250  12.0000000   1.0078250  14.0030740  12.0000000   1.0078250  12.0000000   1.0078250
 NucSpn=           0           2           1           0           1           2           0           1           0           1
 AtZEff=   0.0000000   0.0000000   0.0000000   0.0000000   0.0000000   0.0000000   0.0000000   0.0000000   0.0000000   0.0000000
 NQMom=    0.0000000   2.0440000   0.0000000   0.0000000   0.0000000   2.0440000   0.0000000   0.0000000   0.0000000   0.0000000
 NMagM=    0.0000000   0.4037610   2.7928460   0.0000000   2.7928460   0.4037610   0.0000000   2.7928460   0.0000000   2.7928460

  Atom        11          12          13          14          15          16          17          18          19          20
 IAtWgt=           1          12          16          16          12          14           1          12           1          14
 AtmWgt=   1.0078250  12.0000000  15.9949146  15.9949146  12.0000000  14.0030740   1.0078250  12.0000000   1.0078250  14.0030740
 NucSpn=           1           0           0           0           0           2           1           0           1           2
 AtZEff=   0.0000000   0.0000000   0.0000000   0.0000000   0.0000000   0.0000000   0.0000000   0.0000000   0.0000000   0.0000000
 NQMom=    0.0000000   0.0000000   0.0000000   0.0000000   0.0000000   2.0440000   0.0000000   0.0000000   0.0000000   2.0440000
 NMagM=    2.7928460   0.0000000   0.0000000   0.0000000   0.0000000   0.4037610   2.7928460   0.0000000   2.7928460   0.4037610

  Atom        21          22          23          24          25          26          27          28          29          30
 IAtWgt=          12           1          12          14           1          12           1          14          12           1
 AtmWgt=  12.0000000   1.0078250  12.0000000  14.0030740   1.0078250  12.0000000   1.0078250  14.0030740  12.0000000   1.0078250
 NucSpn=           0           1           0           2           1           0           1           2           0           1
 AtZEff=   0.0000000   0.0000000   0.0000000   0.0000000   0.0000000   0.0000000   0.0000000   0.0000000   0.0000000   0.0000000
 NQMom=    0.0000000   0.0000000   0.0000000   2.0440000   0.0000000   0.0000000   0.0000000   2.0440000   0.0000000   0.0000000
 NMagM=    0.0000000   2.7928460   0.0000000   0.4037610   2.7928460   0.0000000   2.7928460   0.4037610   0.0000000   2.7928460

  Atom        31          32          33          34          35          36          37          38          39          40
 IAtWgt=          64          12           1           1          32          12           1          12           1           1
 AtmWgt=  63.9291454  12.0000000   1.0078250   1.0078250  31.9720718  12.0000000   1.0078250  12.0000000   1.0078250   1.0078250
 NucSpn=           0           0           1           1           0           0           1           0           1           1
 AtZEff=   0.0000000   0.0000000   0.0000000   0.0000000   0.0000000   0.0000000   0.0000000   0.0000000   0.0000000   0.0000000
 NQMom=    0.0000000   0.0000000   0.0000000   0.0000000   0.0000000   0.0000000   0.0000000   0.0000000   0.0000000   0.0000000
 NMagM=    0.0000000   0.0000000   2.7928460   2.7928460   0.0000000   0.0000000   2.7928460   0.0000000   2.7928460   2.7928460

  Atom        41          42          43          44          45          46          47          48          49          50
 IAtWgt=          32          16          16          16           1           1           1           1           1           1
 AtmWgt=  31.9720718  15.9949146  15.9949146  15.9949146   1.0078250   1.0078250   1.0078250   1.0078250   1.0078250   1.0078250
 NucSpn=           0           0           0           0           1           1           1           1           1           1
 AtZEff=   0.0000000   0.0000000   0.0000000   0.0000000   0.0000000   0.0000000   0.0000000   0.0000000   0.0000000   0.0000000
 NQMom=    0.0000000   0.0000000   0.0000000   0.0000000   0.0000000   0.0000000   0.0000000   0.0000000   0.0000000   0.0000000
 NMagM=    0.0000000   0.0000000   0.0000000   0.0000000   2.7928460   2.7928460   2.7928460   2.7928460   2.7928460   2.7928460

  Atom        51
 IAtWgt=           1
 AtmWgt=   1.0078250
 NucSpn=           1
 AtZEff=   0.0000000
 NQMom=    0.0000000
 NMagM=    2.7928460
 Leave Link  101 at Sun Nov  8 11:51:08 2009, MaxMem=  393216000 cpu:       0.1
 (Enter XXXXXXX/x86_64/g09a02/g09/l202.exe)
 Stoichiometry    C14H23N6O5S2Zn(1+)
 Framework group  C1[X(C14H23N6O5S2Zn)]
 Deg. of freedom   147
 Full point group                 C1      NOp   1
 Largest Abelian subgroup         C1      NOp   1
 Largest concise Abelian subgroup C1      NOp   1
                         Standard orientation:                         
 ---------------------------------------------------------------------
 Center     Atomic      Atomic             Coordinates (Angstroms)
 Number     Number       Type             X           Y           Z
 ---------------------------------------------------------------------
      1          6           0       -0.801065    2.467963    3.076224
      2          7           0        0.197129    1.928710    3.891401
      3          1           0        0.395105    2.153673    4.844076
      4          6           0        0.923552    1.002505    3.164875
      5          1           0        1.771013    0.413221    3.535831
      6          7           0        0.359788    0.928619    1.916215
      7          6           0       -0.696716    1.836672    1.840375
      8          1           0       -1.404427    1.931464    0.947102
      9          6           0       -4.058423    3.641857   -0.846998
     10          1           0       -4.422656    3.730808    0.185321
     11          1           0       -4.941028    3.502846   -1.482926
     12          6           0       -3.123992    2.454266   -0.988386
     13          8           0       -2.868996    1.718221    0.030546
     14          8           0       -2.559249    2.166107   -2.073278
     15          6           0        2.290609    3.470546   -1.893751
     16          7           0        3.360311    2.599087   -2.111181
     17          1           0        4.137934    2.667190   -2.730925
     18          6           0        3.158422    1.446016   -1.377154
     19          1           0        3.812989    0.568734   -1.363385
     20          7           0        1.989970    1.600306   -0.681109
     21          6           0        1.438775    2.841577   -0.993583
     22          1           0        0.481595    3.186590   -0.584489
     23          6           0        4.730516   -1.780081    1.384041
     24          7           0        4.266539   -2.738855    0.475694
     25          1           0        4.748997   -3.516799    0.082185
     26          6           0        2.982309   -2.401607    0.076626
     27          1           0        2.362491   -2.947957   -0.657394
     28          7           0        2.616958   -1.280369    0.769562
     29          6           0        3.687588   -0.882381    1.566870
     30          1           0        3.624185    0.005310    2.200938
     31         30           0        1.186061    0.046844    0.294354
     32          6           0       -1.496260   -0.481909   -2.251866
     33          1           0       -1.809754    0.611725   -2.104150
     34          1           0       -1.406832   -0.683308   -3.325423
     35         16           0       -0.195353   -1.261347   -1.197559
     36          6           0       -2.118729   -1.514035   -1.384149
     37          1           0       -2.240115   -2.537831   -1.799702
     38          6           0       -3.177621   -1.114235   -0.437751
     39          1           0       -2.989865   -0.029675   -0.069279
     40          1           0       -4.058415   -0.904969   -1.093696
     41         16           0       -3.692972   -2.344219    0.796374
     42          8           0       -2.540151   -3.185984    1.189047
     43          8           0       -4.855301   -3.052116    0.232116
     44          8           0        2.023754   -2.997585   -3.373679
     45          1           0        1.390772   -2.476101   -2.873669
     46          1           0        2.886276   -2.638390   -3.103463
     47          1           0       -1.524696    3.233169    3.388918
     48          1           0       -3.608146    4.621817   -1.134496
     49          1           0        2.160271    4.423412   -2.411063
     50          1           0        5.725693   -1.753524    1.844935
     51          1           0       -4.029126   -1.652219    1.818766
 ---------------------------------------------------------------------
 Rotational constants (GHZ):      0.1494868      0.1070024      0.0924489
 Leave Link  202 at Sun Nov  8 11:51:09 2009, MaxMem=  393216000 cpu:       0.0
 (Enter XXXXXXX/x86_64/g09a02/g09/l301.exe)
 Standard basis: 6-31G(d) (6D, 7F)
 Ernie: Thresh=  0.10000D-02 Tol=  0.10000D-05 Strict=F.
 There are   495 symmetry adapted basis functions of A   symmetry.
 Integral buffers will be    131072 words long.
 Raffenetti 1 integral format.
 Two-electron integral symmetry is turned on.
   495 basis functions,  1000 primitive gaussians,   498 cartesian basis functions
   125 alpha electrons      125 beta electrons
       nuclear repulsion energy      3854.4188127372 Hartrees.
 IExCor=    0 DFT=F Ex=HF Corr=None ExCW=0 ScaHFX=  1.000000
 ScaDFX=  1.000000  1.000000  1.000000  1.000000 ScalE2=  1.000000  1.000000
 IRadAn=      0 IRanWt=     -1 IRanGd=            0 ICorTp=0
 NAtoms=   51 NActive=   51 NUniq=   51 SFac= 7.50D-01 NAtFMM=   80 NAOKFM=F Big=F
 Leave Link  301 at Sun Nov  8 11:51:09 2009, MaxMem=  393216000 cpu:       0.1
 (Enter XXXXXXX/x86_64/g09a02/g09/l302.exe)
 NPDir=0 NMtPBC=     1 NCelOv=     1 NCel=       1 NClECP=     1 NCelD=      1
         NCelK=      1 NCelE2=     1 NClLst=     1 CellRange=     0.0.
 One-electron integrals computed using PRISM.
 NBasis=   495 RedAO= T  NBF=   495
 NBsUse=   495 1.00D-06 NBFU=   495
 Leave Link  302 at Sun Nov  8 11:51:11 2009, MaxMem=  393216000 cpu:       1.9
 (Enter XXXXXXX/x86_64/g09a02/g09/l303.exe)
 DipDrv:  MaxL=1.
 Leave Link  303 at Sun Nov  8 11:51:11 2009, MaxMem=  393216000 cpu:       0.3
 (Enter XXXXXXX/x86_64/g09a02/g09/l401.exe)
 Harris functional with IExCor=  205 diagonalized for initial guess.
 ExpMin= 4.93D-02 ExpMax= 8.24D+04 ExpMxC= 1.24D+04 IAcc=2 IRadAn=         0 AccDes= 0.00D+00
 HarFok:  IExCor=  205 AccDes= 0.00D+00 IRadAn=         0 IDoV= 1
 ScaDFX=  1.000000  1.000000  1.000000  1.000000
 FoFCou: FMM=F IPFlag=           0 FMFlag=      100000 FMFlg1=           0
         NFxFlg=           0 DoJE=T BraDBF=F KetDBF=T FulRan=T
         Omega=  0.000000  0.000000  1.000000  0.000000  0.000000 ICntrl=     500 IOpCl=  0
         NMat0=    1 NMatS0=    1 NMatT0=    0 NMatD0=    1 NMtDS0=    0 NMtDT0=    0
         I1Cent=           4 NGrid=           0.
 Petite list used in FoFCou.
 Harris En= -3816.92185956851    
 Initial guess orbital symmetries:
       Occupied  (A) (A) (A) (A) (A) (A) (A) (A) (A) (A) (A) (A)
                 (A) (A) (A) (A) (A) (A) (A) (A) (A) (A) (A) (A)
                 (A) (A) (A) (A) (A) (A) (A) (A) (A) (A) (A) (A)
                 (A) (A) (A) (A) (A) (A) (A) (A) (A) (A) (A) (A)
                 (A) (A) (A) (A) (A) (A) (A) (A) (A) (A) (A) (A)
                 (A) (A) (A) (A) (A) (A) (A) (A) (A) (A) (A) (A)
                 (A) (A) (A) (A) (A) (A) (A) (A) (A) (A) (A) (A)
                 (A) (A) (A) (A) (A) (A) (A) (A) (A) (A) (A) (A)
                 (A) (A) (A) (A) (A) (A) (A) (A) (A) (A) (A) (A)
                 (A) (A) (A) (A) (A) (A) (A) (A) (A) (A) (A) (A)
                 (A) (A) (A) (A) (A)
       Virtual   (A) (A) (A) (A) (A) (A) (A) (A) (A) (A) (A) (A)
                 (A) (A) (A) (A) (A) (A) (A) (A) (A) (A) (A) (A)
                 (A) (A) (A) (A) (A) (A) (A) (A) (A) (A) (A) (A)
                 (A) (A) (A) (A) (A) (A) (A) (A) (A) (A) (A) (A)
                 (A) (A) (A) (A) (A) (A) (A) (A) (A) (A) (A) (A)
                 (A) (A) (A) (A) (A) (A) (A) (A) (A) (A) (A) (A)
                 (A) (A) (A) (A) (A) (A) (A) (A) (A) (A) (A) (A)
                 (A) (A) (A) (A) (A) (A) (A) (A) (A) (A) (A) (A)
                 (A) (A) (A) (A) (A) (A) (A) (A) (A) (A) (A) (A)
                 (A) (A) (A) (A) (A) (A) (A) (A) (A) (A) (A) (A)
                 (A) (A) (A) (A) (A) (A) (A) (A) (A) (A) (A) (A)
                 (A) (A) (A) (A) (A) (A) (A) (A) (A) (A) (A) (A)
                 (A) (A) (A) (A) (A) (A) (A) (A) (A) (A) (A) (A)
                 (A) (A) (A) (A) (A) (A) (A) (A) (A) (A) (A) (A)
                 (A) (A) (A) (A) (A) (A) (A) (A) (A) (A) (A) (A)
                 (A) (A) (A) (A) (A) (A) (A) (A) (A) (A) (A) (A)
                 (A) (A) (A) (A) (A) (A) (A) (A) (A) (A) (A) (A)
                 (A) (A) (A) (A) (A) (A) (A) (A) (A) (A) (A) (A)
                 (A) (A) (A) (A) (A) (A) (A) (A) (A) (A) (A) (A)
                 (A) (A) (A) (A) (A) (A) (A) (A) (A) (A) (A) (A)
                 (A) (A) (A) (A) (A) (A) (A) (A) (A) (A) (A) (A)
                 (A) (A) (A) (A) (A) (A) (A) (A) (A) (A) (A) (A)
                 (A) (A) (A) (A) (A) (A) (A) (A) (A) (A) (A) (A)
                 (A) (A) (A) (A) (A) (A) (A) (A) (A) (A) (A) (A)
                 (A) (A) (A) (A) (A) (A) (A) (A) (A) (A) (A) (A)
                 (A) (A) (A) (A) (A) (A) (A) (A) (A) (A) (A) (A)
                 (A) (A) (A) (A) (A) (A) (A) (A) (A) (A) (A) (A)
                 (A) (A) (A) (A) (A) (A) (A) (A) (A) (A) (A) (A)
                 (A) (A) (A) (A) (A) (A) (A) (A) (A) (A) (A) (A)
                 (A) (A) (A) (A) (A) (A) (A) (A) (A) (A) (A) (A)
                 (A) (A) (A) (A) (A) (A) (A) (A) (A) (A)
 The electronic state of the initial guess is 1-A.
 Leave Link  401 at Sun Nov  8 11:51:22 2009, MaxMem=  393216000 cpu:       9.2
 (Enter XXXXXXX/x86_64/g09a02/g09/l502.exe)
 Closed shell SCF:
 Requested convergence on RMS density matrix=1.00D-08 within  64 cycles.
 Requested convergence on MAX density matrix=1.00D-06.
 Requested convergence on             energy=1.00D-06.
 No special actions if energy rises.
 Using DIIS extrapolation, IDIIS=  1040.
 Integral symmetry usage will be decided dynamically.
 IEnd=      756287 IEndB=      756287 NGot=   393216000 MDV=   392712440
 LenX=   392712440 LenY=   392463938
 Fock matrices will be formed incrementally for  20 cycles.

 Cycle   1  Pass 0  IDiag  1:
 FoFCou: FMM=F IPFlag=           0 FMFlag=      100000 FMFlg1=           0
         NFxFlg=           0 DoJE=F BraDBF=F KetDBF=F FulRan=T
         Omega=  0.000000  0.000000  1.000000  0.000000  0.000000 ICntrl=       0 IOpCl=  0
         NMat0=    1 NMatS0=    1 NMatT0=    0 NMatD0=    1 NMtDS0=    0 NMtDT0=    0
         I1Cent=           0 NGrid=           0.
 Symmetry not used in FoFCou.
 E= -3815.41064114479    
 DIIS: error= 1.13D-01 at cycle   1 NSaved=   1.
 NSaved= 1 IEnMin= 1 EnMin= -3815.41064114479     IErMin= 1 ErrMin= 1.13D-01
 ErrMax= 1.13D-01 EMaxC= 1.00D-01 BMatC= 2.82D+00 BMatP= 2.82D+00
 IDIUse=3 WtCom= 0.00D+00 WtEn= 1.00D+00
 Coeff-Com:  0.100D+01
 Coeff-En:   0.100D+01
 Coeff:      0.100D+01
 Gap=     0.680 Goal=   None    Shift=    0.000
 GapD=    0.680 DampG=2.000 DampE=0.125 DampFc=0.2500 IDamp=-1.
 Damping current iteration by 2.50D-01
 RMSDP=3.94D-03 MaxDP=1.60D-01              OVMax= 1.49D-01

 Cycle   2  Pass 0  IDiag  1:
 RMSU=  6.89D-04    CP:  9.92D-01
 E= -3815.81985241970     Delta-E=       -0.409211274905 Rises=F Damp=T
 DIIS: error= 8.36D-02 at cycle   2 NSaved=   2.
 NSaved= 2 IEnMin= 2 EnMin= -3815.81985241970     IErMin= 2 ErrMin= 8.36D-02
 ErrMax= 8.36D-02 EMaxC= 1.00D-01 BMatC= 1.32D+00 BMatP= 2.82D+00
 IDIUse=3 WtCom= 1.64D-01 WtEn= 8.36D-01
 Coeff-Com: -0.176D+01 0.276D+01
 Coeff-En:   0.000D+00 0.100D+01
 Coeff:     -0.290D+00 0.129D+01
 Gap=     0.339 Goal=   None    Shift=    0.000
 RMSDP=2.46D-03 MaxDP=1.01D-01 DE=-4.09D-01 OVMax= 3.71D-02

 Cycle   3  Pass 0  IDiag  1:
 RMSU=  4.82D-04    CP:  9.71D-01  3.00D+00
 E= -3816.65077767228     Delta-E=       -0.830925252580 Rises=F Damp=F
 DIIS: error= 2.27D-02 at cycle   3 NSaved=   3.
 NSaved= 3 IEnMin= 3 EnMin= -3816.65077767228     IErMin= 3 ErrMin= 2.27D-02
 ErrMax= 2.27D-02 EMaxC= 1.00D-01 BMatC= 1.51D-01 BMatP= 1.32D+00
 IDIUse=3 WtCom= 7.73D-01 WtEn= 2.27D-01
 Coeff-Com:  0.216D+01-0.289D+01 0.173D+01
 Coeff-En:   0.000D+00 0.000D+00 0.100D+01
 Coeff:      0.167D+01-0.224D+01 0.157D+01
 Gap=     0.445 Goal=   None    Shift=    0.000
 RMSDP=7.68D-04 MaxDP=5.16D-02 DE=-8.31D-01 OVMax= 3.75D-02

 Cycle   4  Pass 0  IDiag  1:
 RMSU=  5.01D-04    CP:  9.73D-01  2.93D+00  1.25D+00
 E= -3816.73892312013     Delta-E=       -0.088145447853 Rises=F Damp=F
 DIIS: error= 5.40D-03 at cycle   4 NSaved=   4.
 NSaved= 4 IEnMin= 4 EnMin= -3816.73892312013     IErMin= 4 ErrMin= 5.40D-03
 ErrMax= 5.40D-03 EMaxC= 1.00D-01 BMatC= 7.51D-03 BMatP= 1.51D-01
 IDIUse=3 WtCom= 9.46D-01 WtEn= 5.40D-02
 Coeff-Com: -0.197D+00 0.252D+00 0.315D-01 0.913D+00
 Coeff-En:   0.000D+00 0.000D+00 0.000D+00 0.100D+01
 Coeff:     -0.186D+00 0.239D+00 0.298D-01 0.918D+00
 Gap=     0.422 Goal=   None    Shift=    0.000
 RMSDP=1.53D-04 MaxDP=6.83D-03 DE=-8.81D-02 OVMax= 8.20D-03

 Cycle   5  Pass 0  IDiag  1:
 RMSU=  5.52D-05    CP:  9.72D-01  3.00D+00  1.28D+00  9.14D-01
 E= -3816.74354021352     Delta-E=       -0.004617093386 Rises=F Damp=F
 DIIS: error= 8.45D-04 at cycle   5 NSaved=   5.
 NSaved= 5 IEnMin= 5 EnMin= -3816.74354021352     IErMin= 5 ErrMin= 8.45D-04
 ErrMax= 8.45D-04 EMaxC= 1.00D-01 BMatC= 2.31D-04 BMatP= 7.51D-03
 IDIUse=3 WtCom= 9.92D-01 WtEn= 8.45D-03
 Coeff-Com: -0.809D-01 0.105D+00-0.294D-01 0.232D+00 0.773D+00
 Coeff-En:   0.000D+00 0.000D+00 0.000D+00 0.000D+00 0.100D+01
 Coeff:     -0.802D-01 0.104D+00-0.291D-01 0.230D+00 0.775D+00
 Gap=     0.422 Goal=   None    Shift=    0.000
 RMSDP=3.48D-05 MaxDP=2.51D-03 DE=-4.62D-03 OVMax= 2.33D-03

 Cycle   6  Pass 0  IDiag  1:
 RMSU=  2.18D-05    CP:  9.72D-01  3.00D+00  1.30D+00  9.27D-01  1.11D+00
 E= -3816.74377986398     Delta-E=       -0.000239650462 Rises=F Damp=F
 DIIS: error= 2.13D-04 at cycle   6 NSaved=   6.
 NSaved= 6 IEnMin= 6 EnMin= -3816.74377986398     IErMin= 6 ErrMin= 2.13D-04
 ErrMax= 2.13D-04 EMaxC= 1.00D-01 BMatC= 3.49D-05 BMatP= 2.31D-04
 IDIUse=3 WtCom= 9.98D-01 WtEn= 2.13D-03
 Coeff-Com:  0.772D-02-0.844D-02-0.296D-01-0.154D+00 0.132D+00 0.105D+01
 Coeff-En:   0.000D+00 0.000D+00 0.000D+00 0.000D+00 0.000D+00 0.100D+01
 Coeff:      0.770D-02-0.842D-02-0.296D-01-0.154D+00 0.132D+00 0.105D+01
 Gap=     0.423 Goal=   None    Shift=    0.000
 RMSDP=2.79D-05 MaxDP=1.77D-03 DE=-2.40D-04 OVMax= 2.56D-03

 Cycle   7  Pass 0  IDiag  1:
 RMSU=  7.33D-06    CP:  9.72D-01  3.00D+00  1.31D+00  9.39D-01  1.38D+00
                    CP:  1.24D+00
 E= -3816.74387137661     Delta-E=       -0.000091512629 Rises=F Damp=F
 DIIS: error= 7.67D-05 at cycle   7 NSaved=   7.
 NSaved= 7 IEnMin= 7 EnMin= -3816.74387137661     IErMin= 7 ErrMin= 7.67D-05
 ErrMax= 7.67D-05 EMaxC= 1.00D-01 BMatC= 3.02D-06 BMatP= 3.49D-05
 IDIUse=1 WtCom= 1.00D+00 WtEn= 0.00D+00
 Coeff-Com:  0.520D-02-0.702D-02 0.834D-02 0.110D-01-0.995D-01-0.190D+00
 Coeff-Com:  0.127D+01
 Coeff:      0.520D-02-0.702D-02 0.834D-02 0.110D-01-0.995D-01-0.190D+00
 Coeff:      0.127D+01
 Gap=     0.423 Goal=   None    Shift=    0.000
 RMSDP=1.03D-05 MaxDP=3.84D-04 DE=-9.15D-05 OVMax= 1.37D-03

 Cycle   8  Pass 0  IDiag  1:
 RMSU=  2.70D-06    CP:  9.72D-01  3.00D+00  1.31D+00  9.42D-01  1.44D+00
                    CP:  1.41D+00  1.58D+00
 E= -3816.74388390096     Delta-E=       -0.000012524350 Rises=F Damp=F
 DIIS: error= 3.43D-05 at cycle   8 NSaved=   8.
 NSaved= 8 IEnMin= 8 EnMin= -3816.74388390096     IErMin= 8 ErrMin= 3.43D-05
 ErrMax= 3.43D-05 EMaxC= 1.00D-01 BMatC= 5.59D-07 BMatP= 3.02D-06
 IDIUse=1 WtCom= 1.00D+00 WtEn= 0.00D+00
 Coeff-Com: -0.893D-03 0.954D-03 0.500D-02 0.218D-01-0.288D-01-0.170D+00
 Coeff-Com:  0.145D+00 0.103D+01
 Coeff:     -0.893D-03 0.954D-03 0.500D-02 0.218D-01-0.288D-01-0.170D+00
 Coeff:      0.145D+00 0.103D+01
 Gap=     0.423 Goal=   None    Shift=    0.000
 RMSDP=3.88D-06 MaxDP=1.54D-04 DE=-1.25D-05 OVMax= 4.95D-04

 Initial convergence to 1.0D-05 achieved.  Increase integral accuracy.
 Cycle   9  Pass 1  IDiag  1:
 E= -3816.74388573784     Delta-E=       -0.000001836879 Rises=F Damp=F
 DIIS: error= 2.27D-05 at cycle   1 NSaved=   1.
 NSaved= 1 IEnMin= 1 EnMin= -3816.74388573784     IErMin= 1 ErrMin= 2.27D-05
 ErrMax= 2.27D-05 EMaxC= 1.00D-01 BMatC= 9.12D-08 BMatP= 9.12D-08
 IDIUse=1 WtCom= 1.00D+00 WtEn= 0.00D+00
 Coeff-Com:  0.100D+01
 Coeff:      0.100D+01
 Gap=     0.423 Goal=   None    Shift=    0.000
 RMSDP=3.88D-06 MaxDP=1.54D-04 DE=-1.84D-06 OVMax= 1.64D-04

 Cycle  10  Pass 1  IDiag  1:
 RMSU=  7.44D-07    CP:  1.00D+00
 E= -3816.74388594183     Delta-E=       -0.000000203994 Rises=F Damp=F
 DIIS: error= 1.00D-05 at cycle   2 NSaved=   2.
 NSaved= 2 IEnMin= 2 EnMin= -3816.74388594183     IErMin= 2 ErrMin= 1.00D-05
 ErrMax= 1.00D-05 EMaxC= 1.00D-01 BMatC= 4.31D-08 BMatP= 9.12D-08
 IDIUse=1 WtCom= 1.00D+00 WtEn= 0.00D+00
 Coeff-Com:  0.323D+00 0.677D+00
 Coeff:      0.323D+00 0.677D+00
 Gap=     0.423 Goal=   None    Shift=    0.000
 RMSDP=4.69D-07 MaxDP=1.98D-05 DE=-2.04D-07 OVMax= 4.68D-05

 Cycle  11  Pass 1  IDiag  1:
 RMSU=  3.17D-07    CP:  1.00D+00  1.13D+00
 E= -3816.74388600848     Delta-E=       -0.000000066647 Rises=F Damp=F
 DIIS: error= 5.73D-06 at cycle   3 NSaved=   3.
 NSaved= 3 IEnMin= 3 EnMin= -3816.74388600848     IErMin= 3 ErrMin= 5.73D-06
 ErrMax= 5.73D-06 EMaxC= 1.00D-01 BMatC= 1.04D-08 BMatP= 4.31D-08
 IDIUse=1 WtCom= 1.00D+00 WtEn= 0.00D+00
 Coeff-Com: -0.508D+00-0.257D+00 0.176D+01
 Coeff:     -0.508D+00-0.257D+00 0.176D+01
 Gap=     0.422 Goal=   None    Shift=    0.000
 RMSDP=7.86D-07 MaxDP=2.78D-05 DE=-6.66D-08 OVMax= 1.28D-04

 Cycle  12  Pass 1  IDiag  1:
 RMSU=  1.11D-07    CP:  1.00D+00  1.78D+00  1.79D+00
 E= -3816.74388606202     Delta-E=       -0.000000053543 Rises=F Damp=F
 DIIS: error= 2.08D-06 at cycle   4 NSaved=   4.
 NSaved= 4 IEnMin= 4 EnMin= -3816.74388606202     IErMin= 4 ErrMin= 2.08D-06
 ErrMax= 2.08D-06 EMaxC= 1.00D-01 BMatC= 9.17D-10 BMatP= 1.04D-08
 IDIUse=1 WtCom= 1.00D+00 WtEn= 0.00D+00
 Coeff-Com: -0.186D+00-0.141D+00 0.586D+00 0.741D+00
 Coeff:     -0.186D+00-0.141D+00 0.586D+00 0.741D+00
 Gap=     0.422 Goal=   None    Shift=    0.000
 RMSDP=1.09D-07 MaxDP=3.89D-06 DE=-5.35D-08 OVMax= 1.71D-05

 Cycle  13  Pass 1  IDiag  1:
 RMSU=  4.18D-08    CP:  1.00D+00  1.84D+00  1.93D+00  1.08D+00
 E= -3816.74388606393     Delta-E=       -0.000000001908 Rises=F Damp=F
 DIIS: error= 8.32D-07 at cycle   5 NSaved=   5.
 NSaved= 5 IEnMin= 5 EnMin= -3816.74388606393     IErMin= 5 ErrMin= 8.32D-07
 ErrMax= 8.32D-07 EMaxC= 1.00D-01 BMatC= 9.80D-11 BMatP= 9.17D-10
 IDIUse=1 WtCom= 1.00D+00 WtEn= 0.00D+00
 Coeff-Com:  0.120D+00 0.563D-01-0.402D+00-0.881D-01 0.131D+01
 Coeff:      0.120D+00 0.563D-01-0.402D+00-0.881D-01 0.131D+01
 Gap=     0.422 Goal=   None    Shift=    0.000
 RMSDP=6.35D-08 MaxDP=2.46D-06 DE=-1.91D-09 OVMax= 8.35D-06

 Cycle  14  Pass 1  IDiag  1:
 RMSU=  1.19D-08    CP:  1.00D+00  1.86D+00  1.97D+00  1.40D+00  1.37D+00
 E= -3816.74388606421     Delta-E=       -0.000000000286 Rises=F Damp=F
 DIIS: error= 2.52D-07 at cycle   6 NSaved=   6.
 NSaved= 6 IEnMin= 6 EnMin= -3816.74388606421     IErMin= 6 ErrMin= 2.52D-07
 ErrMax= 2.52D-07 EMaxC= 1.00D-01 BMatC= 1.10D-11 BMatP= 9.80D-11
 IDIUse=1 WtCom= 1.00D+00 WtEn= 0.00D+00
 Coeff-Com:  0.545D-01 0.289D-01-0.177D+00-0.871D-01 0.430D+00 0.750D+00
 Coeff:      0.545D-01 0.289D-01-0.177D+00-0.871D-01 0.430D+00 0.750D+00
 Gap=     0.422 Goal=   None    Shift=    0.000
 RMSDP=1.03D-08 MaxDP=5.38D-07 DE=-2.86D-10 OVMax= 9.91D-07

 Cycle  15  Pass 1  IDiag  1:
 RMSU=  4.16D-09    CP:  1.00D+00  1.86D+00  1.98D+00  1.43D+00  1.48D+00
                    CP:  9.79D-01
 E= -3816.74388606416     Delta-E=        0.000000000050 Rises=F Damp=F
 DIIS: error= 3.25D-08 at cycle   7 NSaved=   7.
 NSaved= 7 IEnMin= 6 EnMin= -3816.74388606421     IErMin= 7 ErrMin= 3.25D-08
 ErrMax= 3.25D-08 EMaxC= 1.00D-01 BMatC= 7.91D-13 BMatP= 1.10D-11
 IDIUse=1 WtCom= 1.00D+00 WtEn= 0.00D+00
 Coeff-Com: -0.621D-02-0.280D-02 0.218D-01-0.332D-03-0.838D-01 0.693D-01
 Coeff-Com:  0.100D+01
 Coeff:     -0.621D-02-0.280D-02 0.218D-01-0.332D-03-0.838D-01 0.693D-01
 Coeff:      0.100D+01
 Gap=     0.422 Goal=   None    Shift=    0.000
 RMSDP=3.85D-09 MaxDP=1.37D-07 DE= 5.00D-11 OVMax= 4.65D-07

 SCF Done:  E(RHF) =  -3816.74388606     A.U. after   15 cycles
             Convg  =    0.3849D-08             -V/T =  2.0014
 KE= 3.811357715173D+03 PE=-1.674943671305D+04 EE= 5.266916299074D+03
 Leave Link  502 at Sun Nov  8 12:09:45 2009, MaxMem=  393216000 cpu:    1040.4
 (Enter XXXXXXX/x86_64/g09a02/g09/l508.exe)
 QCSCF skips out because SCF is already converged.
 Leave Link  508 at Sun Nov  8 12:09:46 2009, MaxMem=  393216000 cpu:       0.0
 (Enter XXXXXXX/x86_64/g09a02/g09/l601.exe)
 Copying SCF densities to generalized density rwf, IOpCl= 0 IROHF=0.

 **********************************************************************

            Population analysis using the SCF density.

 **********************************************************************

 Orbital symmetries:
 BldTbl:  Degeneracy threshold= 1.00D-02
       Occupied  (A) (A) (A) (A) (A) (A) (A) (A) (A) (A) (A) (A)
                 (A) (A) (A) (A) (A) (A) (A) (A) (A) (A) (A) (A)
                 (A) (A) (A) (A) (A) (A) (A) (A) (A) (A) (A) (A)
                 (A) (A) (A) (A) (A) (A) (A) (A) (A) (A) (A) (A)
                 (A) (A) (A) (A) (A) (A) (A) (A) (A) (A) (A) (A)
                 (A) (A) (A) (A) (A) (A) (A) (A) (A) (A) (A) (A)
                 (A) (A) (A) (A) (A) (A) (A) (A) (A) (A) (A) (A)
                 (A) (A) (A) (A) (A) (A) (A) (A) (A) (A) (A) (A)
                 (A) (A) (A) (A) (A) (A) (A) (A) (A) (A) (A) (A)
                 (A) (A) (A) (A) (A) (A) (A) (A) (A) (A) (A) (A)
                 (A) (A) (A) (A) (A)
       Virtual   (A) (A) (A) (A) (A) (A) (A) (A) (A) (A) (A) (A)
                 (A) (A) (A) (A) (A) (A) (A) (A) (A) (A) (A) (A)
                 (A) (A) (A) (A) (A) (A) (A) (A) (A) (A) (A) (A)
                 (A) (A) (A) (A) (A) (A) (A) (A) (A) (A) (A) (A)
                 (A) (A) (A) (A) (A) (A) (A) (A) (A) (A) (A) (A)
                 (A) (A) (A) (A) (A) (A) (A) (A) (A) (A) (A) (A)
                 (A) (A) (A) (A) (A) (A) (A) (A) (A) (A) (A) (A)
                 (A) (A) (A) (A) (A) (A) (A) (A) (A) (A) (A) (A)
                 (A) (A) (A) (A) (A) (A) (A) (A) (A) (A) (A) (A)
                 (A) (A) (A) (A) (A) (A) (A) (A) (A) (A) (A) (A)
                 (A) (A) (A) (A) (A) (A) (A) (A) (A) (A) (A) (A)
                 (A) (A) (A) (A) (A) (A) (A) (A) (A) (A) (A) (A)
                 (A) (A) (A) (A) (A) (A) (A) (A) (A) (A) (A) (A)
                 (A) (A) (A) (A) (A) (A) (A) (A) (A) (A) (A) (A)
                 (A) (A) (A) (A) (A) (A) (A) (A) (A) (A) (A) (A)
                 (A) (A) (A) (A) (A) (A) (A) (A) (A) (A) (A) (A)
                 (A) (A) (A) (A) (A) (A) (A) (A) (A) (A) (A) (A)
                 (A) (A) (A) (A) (A) (A) (A) (A) (A) (A) (A) (A)
                 (A) (A) (A) (A) (A) (A) (A) (A) (A) (A) (A) (A)
                 (A) (A) (A) (A) (A) (A) (A) (A) (A) (A) (A) (A)
                 (A) (A) (A) (A) (A) (A) (A) (A) (A) (A) (A) (A)
                 (A) (A) (A) (A) (A) (A) (A) (A) (A) (A) (A) (A)
                 (A) (A) (A) (A) (A) (A) (A) (A) (A) (A) (A) (A)
                 (A) (A) (A) (A) (A) (A) (A) (A) (A) (A) (A) (A)
                 (A) (A) (A) (A) (A) (A) (A) (A) (A) (A) (A) (A)
                 (A) (A) (A) (A) (A) (A) (A) (A) (A) (A) (A) (A)
                 (A) (A) (A) (A) (A) (A) (A) (A) (A) (A) (A) (A)
                 (A) (A) (A) (A) (A) (A) (A) (A) (A) (A) (A) (A)
                 (A) (A) (A) (A) (A) (A) (A) (A) (A) (A) (A) (A)
                 (A) (A) (A) (A) (A) (A) (A) (A) (A) (A) (A) (A)
                 (A) (A) (A) (A) (A) (A) (A) (A) (A) (A)
 The electronic state is 1-A.
 Alpha  occ. eigenvalues -- -353.44365 -92.25660 -92.06174 -44.52146 -39.08984
 Alpha  occ. eigenvalues --  -39.08909 -39.08877 -20.66152 -20.62006 -20.61551
 Alpha  occ. eigenvalues --  -20.54819 -20.54481 -15.80511 -15.78779 -15.76899
 Alpha  occ. eigenvalues --  -15.75977 -15.74353 -15.72391 -11.49750 -11.48121
 Alpha  occ. eigenvalues --  -11.46250 -11.44147 -11.42929 -11.42276 -11.41654
 Alpha  occ. eigenvalues --  -11.40535 -11.39220 -11.38996 -11.37047 -11.36724
 Alpha  occ. eigenvalues --  -11.35220 -11.27611  -9.23561  -9.07432  -6.92118
 Alpha  occ. eigenvalues --   -6.92054  -6.92020  -6.75770  -6.75536  -6.75440
 Alpha  occ. eigenvalues --   -5.78614  -3.99405  -3.99294  -3.99205  -1.50188
 Alpha  occ. eigenvalues --   -1.50031  -1.48306  -1.45992  -1.43774  -1.42492
 Alpha  occ. eigenvalues --   -1.38550  -1.34012  -1.32170  -1.30545  -1.29879
 Alpha  occ. eigenvalues --   -1.25289  -1.17606  -1.15677  -1.12945  -1.12256
 Alpha  occ. eigenvalues --   -1.03065  -1.01073  -1.00557  -0.99096  -0.97403
 Alpha  occ. eigenvalues --   -0.96734  -0.95639  -0.95279  -0.93186  -0.92771
 Alpha  occ. eigenvalues --   -0.92034  -0.91530  -0.91420  -0.90808  -0.90407
 Alpha  occ. eigenvalues --   -0.89756  -0.88746  -0.88121  -0.80623  -0.80047
 Alpha  occ. eigenvalues --   -0.78712  -0.77515  -0.77152  -0.76514  -0.75880
 Alpha  occ. eigenvalues --   -0.75476  -0.75097  -0.74745  -0.74154  -0.73998
 Alpha  occ. eigenvalues --   -0.73230  -0.72770  -0.72122  -0.71988  -0.71857
 Alpha  occ. eigenvalues --   -0.70455  -0.69531  -0.68215  -0.66864  -0.66797
 Alpha  occ. eigenvalues --   -0.66173  -0.64089  -0.63731  -0.63021  -0.61602
 Alpha  occ. eigenvalues --   -0.60876  -0.59530  -0.58297  -0.58118  -0.57400
 Alpha  occ. eigenvalues --   -0.56665  -0.55595  -0.55314  -0.55019  -0.54172
 Alpha  occ. eigenvalues --   -0.52291  -0.51678  -0.51248  -0.49547  -0.48759
 Alpha  occ. eigenvalues --   -0.46402  -0.45821  -0.44201  -0.44066  -0.43656
 Alpha virt. eigenvalues --   -0.01407  -0.00132   0.00793   0.02187   0.03518
 Alpha virt. eigenvalues --    0.03734   0.05615   0.06780   0.07077   0.07289
 Alpha virt. eigenvalues --    0.08426   0.08931   0.09291   0.10128   0.11291
 Alpha virt. eigenvalues --    0.11395   0.13036   0.14046   0.14232   0.14508
 Alpha virt. eigenvalues --    0.14924   0.15455   0.16312   0.16806   0.17448
 Alpha virt. eigenvalues --    0.17743   0.18523   0.19228   0.20075   0.20220
 Alpha virt. eigenvalues --    0.21292   0.21796   0.22029   0.22505   0.23285
 Alpha virt. eigenvalues --    0.24013   0.24583   0.25060   0.25697   0.25920
 Alpha virt. eigenvalues --    0.26624   0.27072   0.28997   0.29564   0.30170
 Alpha virt. eigenvalues --    0.31928   0.32789   0.34404   0.34795   0.35333
 Alpha virt. eigenvalues --    0.36691   0.37554   0.38505   0.39876   0.40383
 Alpha virt. eigenvalues --    0.40797   0.42297   0.43508   0.44946   0.48842
 Alpha virt. eigenvalues --    0.49171   0.49457   0.50886   0.51746   0.52845
 Alpha virt. eigenvalues --    0.53065   0.54651   0.55643   0.56941   0.57970
 Alpha virt. eigenvalues --    0.59172   0.60473   0.61796   0.63176   0.63814
 Alpha virt. eigenvalues --    0.64359   0.65377   0.65644   0.65923   0.66248
 Alpha virt. eigenvalues --    0.67220   0.67373   0.67779   0.68198   0.68660
 Alpha virt. eigenvalues --    0.69141   0.69455   0.69745   0.69925   0.70241
 Alpha virt. eigenvalues --    0.71277   0.71864   0.72709   0.74146   0.75057
 Alpha virt. eigenvalues --    0.75494   0.76188   0.77629   0.78132   0.78730
 Alpha virt. eigenvalues --    0.79304   0.79517   0.80552   0.80948   0.82513
 Alpha virt. eigenvalues --    0.83296   0.84227   0.84368   0.86129   0.86806
 Alpha virt. eigenvalues --    0.87886   0.88510   0.88866   0.89118   0.90123
 Alpha virt. eigenvalues --    0.90634   0.91827   0.92519   0.92744   0.93588
 Alpha virt. eigenvalues --    0.94140   0.94528   0.94890   0.95923   0.96948
 Alpha virt. eigenvalues --    0.98015   0.98636   0.99017   1.00101   1.00504
 Alpha virt. eigenvalues --    1.00700   1.01086   1.01708   1.02317   1.02964
 Alpha virt. eigenvalues --    1.03205   1.03537   1.04277   1.04682   1.04927
 Alpha virt. eigenvalues --    1.05388   1.05865   1.06208   1.06718   1.06991
 Alpha virt. eigenvalues --    1.07802   1.08051   1.08811   1.10031   1.10299
 Alpha virt. eigenvalues --    1.11116   1.11755   1.12299   1.14065   1.15202
 Alpha virt. eigenvalues --    1.15725   1.16274   1.17301   1.18401   1.19608
 Alpha virt. eigenvalues --    1.20615   1.23478   1.24166   1.25730   1.26655
 Alpha virt. eigenvalues --    1.27725   1.28078   1.28432   1.29574   1.30283
 Alpha virt. eigenvalues --    1.31375   1.32524   1.33170   1.33816   1.34149
 Alpha virt. eigenvalues --    1.34921   1.35602   1.36355   1.36413   1.36905
 Alpha virt. eigenvalues --    1.38162   1.38691   1.40654   1.41351   1.42592
 Alpha virt. eigenvalues --    1.43791   1.44607   1.45015   1.45601   1.46090
 Alpha virt. eigenvalues --    1.46620   1.48013   1.48435   1.49378   1.49867
 Alpha virt. eigenvalues --    1.50522   1.50912   1.51417   1.52318   1.52889
 Alpha virt. eigenvalues --    1.55003   1.55808   1.56759   1.57695   1.59255
 Alpha virt. eigenvalues --    1.61853   1.62731   1.63713   1.64085   1.65625
 Alpha virt. eigenvalues --    1.66150   1.66674   1.68150   1.68883   1.69468
 Alpha virt. eigenvalues --    1.70516   1.71933   1.75480   1.76443   1.77808
 Alpha virt. eigenvalues --    1.80704   1.83993   1.88739   1.89650   1.90034
 Alpha virt. eigenvalues --    1.91316   1.92749   1.93821   1.93992   1.96365
 Alpha virt. eigenvalues --    1.96634   1.98131   1.98552   2.00968   2.01577
 Alpha virt. eigenvalues --    2.02219   2.04786   2.06138   2.06980   2.07789
 Alpha virt. eigenvalues --    2.09150   2.09580   2.10849   2.12364   2.12781
 Alpha virt. eigenvalues --    2.12981   2.14251   2.15084   2.15335   2.15569
 Alpha virt. eigenvalues --    2.16449   2.17887   2.18245   2.19903   2.20615
 Alpha virt. eigenvalues --    2.22486   2.23134   2.23994   2.24102   2.25231
 Alpha virt. eigenvalues --    2.26379   2.28356   2.30784   2.33239   2.34330
 Alpha virt. eigenvalues --    2.35336   2.35937   2.36535   2.36687   2.37112
 Alpha virt. eigenvalues --    2.37809   2.38783   2.39350   2.39626   2.40313
 Alpha virt. eigenvalues --    2.40533   2.41420   2.41647   2.43626   2.44198
 Alpha virt. eigenvalues --    2.45122   2.45710   2.46117   2.46380   2.47332
 Alpha virt. eigenvalues --    2.48362   2.49059   2.49687   2.50081   2.50953
 Alpha virt. eigenvalues --    2.51789   2.52486   2.52745   2.53870   2.54041
 Alpha virt. eigenvalues --    2.55025   2.58916   2.60308   2.60644   2.61771
 Alpha virt. eigenvalues --    2.64813   2.65975   2.67064   2.72049   2.72734
 Alpha virt. eigenvalues --    2.73256   2.74507   2.75538   2.77312   2.79210
 Alpha virt. eigenvalues --    2.82017   2.83428   2.83797   2.85923   2.86818
 Alpha virt. eigenvalues --    2.87445   2.89852   2.90744   2.91246   2.91385
 Alpha virt. eigenvalues --    2.93571   2.93989   2.94804   2.95642   2.96470
 Alpha virt. eigenvalues --    2.97403   3.00629   3.01657   3.08652   3.11422
 Alpha virt. eigenvalues --    3.16320   3.19630   3.19906   3.21550   3.22917
 Alpha virt. eigenvalues --    3.23173   3.23809   3.25886   3.26602   3.31567
 Alpha virt. eigenvalues --    3.32714   3.43444   3.99820   4.04434   4.16364
 Alpha virt. eigenvalues --    4.17789   4.19401   4.20399   4.22611   4.26498
 Alpha virt. eigenvalues --    4.27224   4.29004   4.30564   4.36555   4.38922
 Alpha virt. eigenvalues --    4.40197   4.44306   4.48945   4.52786   4.55181
 Alpha virt. eigenvalues --    4.56736   4.57913   4.59873   4.63962   4.65206
 Alpha virt. eigenvalues --    4.67572   4.72389   4.78716   4.83831  48.48171
          Condensed to atoms (all electrons):
 Mulliken atomic charges:
              1
     1  C   -0.022152
     2  N   -0.710115
     3  H    0.433520
     4  C    0.315728
     5  H    0.255986
     6  N   -0.769926
     7  C   -0.050742
     8  H    0.381819
     9  C   -0.579580
    10  H    0.179384
    11  H    0.197678
    12  C    0.774495
    13  O   -0.806821
    14  O   -0.724388
    15  C    0.012900
    16  N   -0.710449
    17  H    0.438888
    18  C    0.322278
    19  H    0.262197
    20  N   -0.761038
    21  C    0.017526
    22  H    0.285655
    23  C    0.023717
    24  N   -0.718423
    25  H    0.448411
    26  C    0.312818
    27  H    0.314941
    28  N   -0.760656
    29  C   -0.018722
    30  H    0.245955
    31  Zn   1.296291
    32  C   -0.478187
    33  H    0.402856
    34  H    0.245813
    35  S   -0.237749
    36  C   -0.171240
    37  H    0.288477
    38  C   -0.697268
    39  H    0.381828
    40  H    0.278173
    41  S    1.354458
    42  O   -0.698636
    43  O   -0.670254
    44  O   -0.876405
    45  H    0.472646
    46  H    0.413171
    47  H    0.274587
    48  H    0.180628
    49  H    0.286466
    50  H    0.288784
    51  H    0.074675
 Sum of Mulliken atomic charges =   1.00000
 Mulliken charges with hydrogens summed into heavy atoms:
              1
     1  C    0.252435
     2  N   -0.276595
     4  C    0.571713
     6  N   -0.769926
     7  C    0.331078
     9  C   -0.021890
    12  C    0.774495
    13  O   -0.806821
    14  O   -0.724388
    15  C    0.299366
    16  N   -0.271561
    18  C    0.584475
    20  N   -0.761038
    21  C    0.303181
    23  C    0.312501
    24  N   -0.270011
    26  C    0.627759
    28  N   -0.760656
    29  C    0.227233
    31  Zn   1.296291
    32  C    0.170482
    35  S   -0.237749
    36  C    0.117237
    38  C   -0.037266
    41  S    1.429134
    42  O   -0.698636
    43  O   -0.670254
    44  O    0.009412
 Sum of Mulliken charges with hydrogens summed into heavy atoms =   1.00000
 DipInt: DoE/N= T F RetVal/Mat= T F Init=T NMatP=  1 IDeriv=0 Min/MaxMlt=  0  4
 Entering OneElI...
 OneElI was handed   392583063 working-precision words.
 Multipole integrals L=0 to 4 MinM= 0 MaxM= 0.
 Requested accuracy = 0.1000D-12
 PrsmSu:  NPrtUS=   1 ThrOK=F IAlg=1
 PRISM was handed   391714666 working-precision words and  9720 shell-pairs
 IPart=  0 NShTot=        9720 NBatch=         113 AvBLen=        86.0
 Electronic moments (au):
       -250.00000000          8.30501256          2.38453931          2.18955522
      -6569.64405057      -4084.03405510      -2670.08721943        -16.35634021
         -5.75090018          3.44941138       3766.61923640      -1495.89301431
      -2218.16733072       3973.60816415       6787.64884429        728.68981372
      -2270.01548160      -2593.66239470       2413.06148871       -472.88881536
    -337855.27249500    -125971.33743386     -83011.87047829       6724.43309638
     -10464.41087478       3343.48655701      10587.69913657       5666.82493903
     -28832.27547370    -142999.47657628     -42875.37748014     -47638.76751348
      34866.22200213      14183.64891779       4768.09496678
 Electronic spatial extent (au):  <R**2>=          13323.7653
 DipInt: DoE/N= F T RetVal/Mat= T F Init=T NMatP=  1 IDeriv=0 Min/MaxMlt=  0  4
 Nuclear    moments (au):
        251.00000000          0.00000000          0.00000000          0.00000000
       6485.45046775       3956.48181988       2561.99146821          0.00000000
          0.00000000          0.00000000      -3130.80906720       1698.06035289
       2498.67684155      -3701.55866219      -6798.76990714       -742.46040261
       2366.66681591       2758.55482842      -2404.02266829        347.21980885
     319311.94981294     112636.71429607      75736.62435685      -9177.30309831
      10004.88907898      -4560.07038777     -10952.51447120      -5687.80139359
      29298.84804996     137644.02624519      38666.30467629      44068.23878832
     -35400.85668359     -14500.34571973      -4006.74847166
 Total      moments (au):
          1.00000000          8.30501256          2.38453931          2.18955522
        -84.19358282       -127.55223522       -108.09575122        -16.35634021
         -5.75090018          3.44941138        635.81016920        202.16733858
        280.50951083        272.04950195        -11.12106285        -13.77058889
         96.65133431        164.89243372          9.03882042       -125.66900651
     -18543.32268206     -13334.62313779      -7275.24612144      -2452.87000193
       -459.52179579      -1216.58383076       -364.81533463        -20.97645455
        466.57257626      -5355.45033109      -4209.07280384      -3570.52872516
       -534.63468146       -316.69680194        761.34649511
 Traceless Quadrup. (au):
         22.42027360        -20.93837880         -1.48189480        -16.35634021
         -5.75090018          3.44941138
 Charge=              1.0000 electrons
 Dipole moment (field-independent basis, Debye):
    X=             21.1092    Y=              6.0609    Z=              5.5653  Tot=             22.6563
 Quadrupole moment (field-independent basis, Debye-Ang):
   XX=           -113.2432   YY=           -171.5621   ZZ=           -145.3925
   XY=            -21.9998   XZ=             -7.7352   YZ=              4.6396
 Traceless Quadrupole moment (field-independent basis, Debye-Ang):
   XX=             30.1560   YY=            -28.1628   ZZ=             -1.9932
   XY=            -21.9998   XZ=             -7.7352   YZ=              4.6396
 Octapole moment (field-independent basis, Debye-Ang**2):
  XXX=            452.5452  YYY=            143.8949  ZZZ=            199.6559  XYY=            193.6343
  XXY=             -7.9155  XXZ=             -9.8014  XZZ=             68.7927  YZZ=            117.3641
  YYZ=              6.4335  XYZ=            -89.4464
 Hexadecapole moment (field-independent basis, Debye-Ang**3):
 XXXX=          -6984.3040 YYYY=          -5022.4582 ZZZZ=          -2740.2064 XXXY=           -923.8684
 XXXZ=           -173.0779 YYYX=           -458.2238 YYYZ=           -137.4069 ZZZX=             -7.9007
 ZZZY=            175.7336 XXYY=          -2017.1193 XXZZ=          -1585.3385 YYZZ=          -1344.8322
 XXYZ=           -201.3690 YYXZ=           -119.2832 ZZXY=            286.7596
 N-N= 3.854418812737D+03 E-N=-1.674943671937D+04  KE= 3.811357715173D+03
 Entering OneElI...
 OneElI was handed   392088264 working-precision words.
 Calculate electrostatic properties
    NBasis =   495  MinDer = 0  MaxDer = 0
    NGrid  =    51  NMatD  =   1
 Requested accuracy = 0.1000D-12
 PrsmSu:  NPrtUS=   4 ThrOK=T IAlg=1
 PRISM was handed    97674100 working-precision words and  7811 shell-pairs
 PRISM was handed    97674100 working-precision words and  7811 shell-pairs
 PRISM was handed    97674100 working-precision words and  7811 shell-pairs
 PRISM was handed    97674100 working-precision words and  7811 shell-pairs
 IPart=  2 NShTot=       99195 NBatch=        1950 AvBLen=        50.9
 IPart=  1 NShTot=       99858 NBatch=        1963 AvBLen=        50.9
 IPart=  3 NShTot=       98175 NBatch=        1930 AvBLen=        50.9
 IPart=  0 NShTot=      101133 NBatch=        1991 AvBLen=        50.8
 --------------------------------------------------------
       Center         ----      EFG at Nuclei      ----
                      3XX-RR        3YY-RR        3ZZ-RR
 --------------------------------------------------------
     1   Atom       -0.095381      0.041043      0.054338
     2   Atom        0.037025      0.123527     -0.160553
     3   Atom        0.181058      0.180968     -0.362026
     4   Atom        0.038973     -0.075891      0.036919
     5   Atom       -0.108893      0.027748      0.081144
     6   Atom       -0.173403      0.111226      0.062177
     7   Atom       -0.082590     -0.196336      0.278926
     8   Atom        0.012431      0.073392     -0.085823
     9   Atom       -0.006581     -0.035154      0.041734
    10   Atom        0.099197      0.140952     -0.240149
    11   Atom       -0.137289      0.135168      0.002121
    12   Atom       -0.238468      0.007206      0.231262
    13   Atom        0.299137     -0.163414     -0.135723
    14   Atom       -0.263437      0.577531     -0.314094
    15   Atom       -0.119365      0.077636      0.041729
    16   Atom        0.001112     -0.177514      0.176403
    17   Atom       -0.168404      0.189538     -0.021135
    18   Atom        0.077128      0.056605     -0.133733
    19   Atom       -0.012669     -0.131606      0.144275
    20   Atom       -0.233765      0.083173      0.150592
    21   Atom        0.126121     -0.109235     -0.016886
    22   Atom       -0.173073      0.087478      0.085595
    23   Atom        0.218644     -0.090999     -0.127644
    24   Atom       -0.195053      0.032035      0.163018
    25   Atom        0.043764     -0.166010      0.122246
    26   Atom       -0.003091      0.026115     -0.023024
    27   Atom        0.005455      0.031149     -0.036604
    28   Atom        0.416902     -0.147111     -0.269792
    29   Atom       -0.025962      0.092875     -0.066913
    30   Atom        0.130750     -0.135741      0.004991
    31   Atom       -0.188197      0.176572      0.011625
    32   Atom       -0.368715      0.329018      0.039697
    33   Atom        0.063347     -0.124415      0.061069
    34   Atom        0.135072      0.129282     -0.264355
    35   Atom       -1.421720      0.904419      0.517301
    36   Atom       -0.474040      0.345895      0.128145
    37   Atom        0.113288     -0.188540      0.075252
    38   Atom       -0.000096      0.089529     -0.089433
    39   Atom        0.063680     -0.088849      0.025169
    40   Atom       -0.116141      0.127243     -0.011103
    41   Atom        0.065398     -0.148960      0.083562
    42   Atom       -0.625474     -0.105220      0.730694
    43   Atom       -0.653333      0.173126      0.480207
    44   Atom       -1.615908      0.707967      0.907941
    45   Atom       -0.089837      0.034151      0.055687
    46   Atom       -0.314940      0.137000      0.177940
    47   Atom       -0.034963     -0.056299      0.091262
    48   Atom        0.060647     -0.171573      0.110926
    49   Atom        0.132133     -0.183792      0.051659
    50   Atom       -0.207065      0.134080      0.072985
    51   Atom        0.117356      0.011639     -0.128995
 --------------------------------------------------------
                        XY            XZ            YZ
 --------------------------------------------------------
     1   Atom       -0.057909     -0.132835      0.203722
     2   Atom        0.381222     -0.105987     -0.176862
     3   Atom       -0.000595     -0.124689     -0.143478
     4   Atom       -0.157843      0.143667     -0.022965
     5   Atom        0.181078     -0.108232      0.066209
     6   Atom       -0.085326     -0.299235      0.328905
     7   Atom       -0.042224      0.197758      0.084649
     8   Atom        0.025197     -0.108262      0.016108
     9   Atom        0.014275      0.012601     -0.012363
    10   Atom        0.014543      0.134907     -0.033564
    11   Atom       -0.042202     -0.208163     -0.035778
    12   Atom       -0.444501     -0.191139     -0.100553
    13   Atom       -0.325830     -0.818723      0.980426
    14   Atom       -0.466585      0.701961     -0.903320
    15   Atom        0.132956     -0.072862     -0.189513
    16   Atom        0.185939      0.286667      0.258654
    17   Atom       -0.023901      0.319300      0.048478
    18   Atom       -0.179289     -0.105020     -0.047398
    19   Atom        0.200249      0.008661      0.011921
    20   Atom        0.296135     -0.100923     -0.340462
    21   Atom       -0.005979     -0.197268     -0.032567
    22   Atom        0.116444      0.144535     -0.038199
    23   Atom       -0.162309      0.040588     -0.034893
    24   Atom        0.124226     -0.256390     -0.321893
    25   Atom        0.244642      0.101160     -0.210198
    26   Atom        0.034120      0.158883      0.248456
    27   Atom       -0.094834     -0.142901     -0.128634
    28   Atom       -0.310553     -0.009341     -0.172280
    29   Atom       -0.128007     -0.028824      0.112846
    30   Atom        0.027214      0.007978     -0.212173
    31   Atom       -0.064345     -0.214115     -0.045628
    32   Atom        0.016689     -0.251254      0.188273
    33   Atom        0.038334      0.011399     -0.042763
    34   Atom        0.009224      0.041382     -0.085886
    35   Atom       -0.024562     -0.775107      1.001640
    36   Atom       -0.005208     -0.361316      0.018961
    37   Atom       -0.033011     -0.006072     -0.135610
    38   Atom        0.037140      0.129061      0.221081
    39   Atom       -0.038825     -0.008119     -0.085998
    40   Atom        0.051418     -0.164171      0.042800
    41   Atom       -0.017403      0.027359      0.116782
    42   Atom        1.139168     -0.514753      0.380173
    43   Atom       -0.922732     -0.784553     -0.608380
    44   Atom       -0.005432      0.176637     -1.052035
    45   Atom        0.238446      0.228288     -0.222647
    46   Atom       -0.212102     -0.156918     -0.095309
    47   Atom        0.198596      0.073056     -0.090234
    48   Atom       -0.141247      0.044053      0.090118
    49   Atom        0.047160     -0.009183      0.183594
    50   Atom        0.000910     -0.160499     -0.015088
    51   Atom        0.061029      0.092963     -0.185368
 --------------------------------------------------------


 ---------------------------------------------------------------------------------
              Nuclear Quadrupole in Principal Axis System
 ---------------------------------------------------------------------------------

       Atom             a.u.   MegaHertz   Gauss  10(-4) cm-1        Axes

              Baa    -0.1980   -26.567    -9.480    -8.862  0.6245 -0.4134  0.6626
     1 C(13)  Bbb    -0.1009   -13.545    -4.833    -4.518  0.7081  0.6577 -0.2571
              Bcc     0.2989    40.112    14.313    13.380 -0.3295  0.6297  0.7035
 
              Baa    -0.3177   -12.254    -4.373    -4.088 -0.6371  0.6889  0.3456
     2 N(14)  Bbb    -0.2063    -7.956    -2.839    -2.654  0.4461 -0.0361  0.8943
              Bcc     0.5240    20.210     7.211     6.741  0.6286  0.7239 -0.2843
 
              Baa    -0.4220  -225.162   -80.343   -75.106  0.1974  0.2271  0.9537
     3 H(1)   Bbb     0.1816    96.898    34.576    32.322  0.7552 -0.6555 -0.0002
              Bcc     0.2404   128.264    45.768    42.784  0.6251  0.7202 -0.3009
 
              Baa    -0.2071   -27.786    -9.915    -9.269  0.6343  0.7096 -0.3067
     4 C(13)  Bbb    -0.0315    -4.233    -1.510    -1.412 -0.2741  0.5775  0.7690
              Bcc     0.2386    32.019    11.425    10.680  0.7228 -0.4037  0.5608
 
              Baa    -0.2787  -148.711   -53.064   -49.605  0.7789 -0.5320  0.3321
     5 H(1)   Bbb     0.1242    66.257    23.642    22.101 -0.1382  0.3710  0.9183
              Bcc     0.1545    82.454    29.422    27.504  0.6117  0.7612 -0.2155
 
              Baa    -0.4124   -15.907    -5.676    -5.306  0.7053 -0.2911  0.6464
     6 N(14)  Bbb    -0.1109    -4.278    -1.527    -1.427  0.6038  0.7244 -0.3326
              Bcc     0.5234    20.185     7.202     6.733 -0.3714  0.6249  0.6867
 
              Baa    -0.2605   -34.959   -12.474   -11.661  0.5406  0.7780 -0.3202
     7 C(13)  Bbb    -0.1121   -15.043    -5.368    -5.018  0.7466 -0.6190 -0.2436
              Bcc     0.3726    50.002    17.842    16.679  0.3878  0.1074  0.9155
 
              Baa    -0.1588   -84.715   -30.229   -28.258  0.5430 -0.1166  0.8316
     8 H(1)   Bbb     0.0667    35.589    12.699    11.871 -0.4730  0.7758  0.4177
              Bcc     0.0921    49.126    17.529    16.387  0.6938  0.6201 -0.3661
 
              Baa    -0.0442    -5.928    -2.115    -1.977 -0.4031  0.8956  0.1880
     9 C(13)  Bbb    -0.0016    -0.218    -0.078    -0.073  0.8923  0.4303 -0.1366
              Bcc     0.0458     6.146     2.193     2.050  0.2033 -0.1127  0.9726
 
              Baa    -0.2903  -154.907   -55.275   -51.671 -0.3289  0.0843  0.9406
    10 H(1)   Bbb     0.1423    75.913    27.088    25.322 -0.4980  0.8308 -0.2486
              Bcc     0.1481    78.994    28.187    26.350  0.8024  0.5502  0.2313
 
              Baa    -0.2942  -156.967   -56.010   -52.359  0.8043  0.1274  0.5804
    11 H(1)   Bbb     0.1406    75.010    26.765    25.021 -0.3059  0.9261  0.2206
              Bcc     0.1536    81.958    29.245    27.338 -0.5094 -0.3550  0.7839
 
              Baa    -0.6296   -84.483   -30.146   -28.180  0.7777  0.5808  0.2405
    12 C(13)  Bbb     0.2684    36.013    12.850    12.013  0.0709 -0.4611  0.8845
              Bcc     0.3612    48.470    17.295    16.168 -0.6247  0.6708  0.3998
 
              Baa    -1.2275    88.821    31.693    29.627  0.2717 -0.6058  0.7478
    13 O(17)  Bbb    -0.2078    15.037     5.366     5.016  0.7562  0.6150  0.2235
              Bcc     1.4353  -103.858   -37.059   -34.643 -0.5953  0.5047  0.6252
 
              Baa    -1.0922    79.028    28.199    26.361 -0.5179  0.2906  0.8046
    14 O(17)  Bbb    -0.3934    28.465    10.157     9.495  0.7502  0.6062  0.2640
              Bcc     1.4856  -107.494   -38.357   -35.856 -0.4110  0.7404 -0.5319
 
              Baa    -0.1900   -25.502    -9.100    -8.506  0.8244 -0.5367 -0.1797
    15 C(13)  Bbb    -0.1119   -15.018    -5.359    -5.010  0.4583  0.4467  0.7684
              Bcc     0.3020    40.520    14.458    13.516  0.3321  0.7158 -0.6143
 
              Baa    -0.3207   -12.370    -4.414    -4.126 -0.2142  0.9116 -0.3508
    16 N(14)  Bbb    -0.2109    -8.133    -2.902    -2.713  0.8135 -0.0322 -0.5807
              Bcc     0.5316    20.503     7.316     6.839  0.5406  0.4098  0.7347
 
              Baa    -0.4263  -227.472   -81.168   -75.877  0.7783  0.0792 -0.6228
    17 H(1)   Bbb     0.1829    97.568    34.815    32.545 -0.3171  0.9058 -0.2810
              Bcc     0.2435   129.904    46.353    43.331  0.5419  0.4162  0.7302
 
              Baa    -0.2325   -31.203   -11.134   -10.408  0.5048  0.4352  0.7455
    18 C(13)  Bbb    -0.0193    -2.595    -0.926    -0.866 -0.4349 -0.6178  0.6552
              Bcc     0.2519    33.798    12.060    11.274  0.7457 -0.6549 -0.1226
 
              Baa    -0.2811  -149.968   -53.512   -50.024 -0.5977  0.8016 -0.0103
    19 H(1)   Bbb     0.1260    67.211    23.982    22.419  0.6400  0.4694 -0.6084
              Bcc     0.1551    82.758    29.530    27.605  0.4829  0.3703  0.7936
 
              Baa    -0.4302   -16.593    -5.921    -5.535  0.7803 -0.5892 -0.2098
    20 N(14)  Bbb    -0.1271    -4.901    -1.749    -1.635  0.5266  0.4380  0.7286
              Bcc     0.5573    21.494     7.670     7.170  0.3374  0.6790 -0.6521
 
              Baa    -0.1702   -22.837    -8.149    -7.617  0.5024  0.4453  0.7411
    21 C(13)  Bbb    -0.0948   -12.718    -4.538    -4.242 -0.2839  0.8946 -0.3451
              Bcc     0.2650    35.555    12.687    11.860  0.8167  0.0371 -0.5759
 
              Baa    -0.2783  -148.513   -52.993   -49.539  0.8698 -0.3164 -0.3786
    22 H(1)   Bbb     0.1228    65.542    23.387    21.862  0.1041  0.8678 -0.4859
              Bcc     0.1555    82.972    29.606    27.676  0.4823  0.3832  0.7877
 
              Baa    -0.1680   -22.541    -8.043    -7.519  0.3131  0.8512  0.4213
    23 C(13)  Bbb    -0.1263   -16.953    -6.049    -5.655 -0.2686 -0.3461  0.8989
              Bcc     0.2943    39.494    14.092    13.174  0.9109 -0.3946  0.1203
 
              Baa    -0.3369   -12.993    -4.636    -4.334  0.8110  0.2050  0.5480
    24 N(14)  Bbb    -0.1955    -7.542    -2.691    -2.516 -0.4625  0.7982  0.3859
              Bcc     0.5324    20.535     7.327     6.850 -0.3583 -0.5664  0.7422
 
              Baa    -0.4252  -226.865   -80.951   -75.674 -0.4906  0.7793  0.3899
    25 H(1)   Bbb     0.1829    97.592    34.823    32.553  0.7984  0.2228  0.5594
              Bcc     0.2423   129.273    46.128    43.121 -0.3491 -0.5857  0.7315
 
              Baa    -0.2843   -38.149   -13.612   -12.725 -0.3550 -0.5601  0.7485
    26 C(13)  Bbb    -0.0256    -3.433    -1.225    -1.145  0.8425 -0.5387 -0.0036
              Bcc     0.3099    41.582    14.838    13.870  0.4052  0.6293  0.6631
 
              Baa    -0.2503  -133.568   -47.661   -44.554  0.5564  0.4931  0.6688
    27 H(1)   Bbb     0.1138    60.725    21.668    20.256 -0.7052  0.7059  0.0662
              Bcc     0.1365    72.844    25.992    24.298 -0.4395 -0.5085  0.7405
 
              Baa    -0.4405   -16.988    -6.062    -5.667  0.2518  0.6742  0.6943
    28 N(14)  Bbb    -0.1186    -4.574    -1.632    -1.526 -0.3410 -0.6096  0.7156
              Bcc     0.5591    21.562     7.694     7.192  0.9057 -0.4169  0.0765
 
              Baa    -0.1430   -19.189    -6.847    -6.401 -0.4612 -0.5740  0.6766
    29 C(13)  Bbb    -0.0751   -10.084    -3.598    -3.363  0.7553  0.1463  0.6389
              Bcc     0.2181    29.272    10.445     9.764 -0.4657  0.8057  0.3660
 
              Baa    -0.2906  -155.055   -55.328   -51.721 -0.0634  0.8100  0.5831
    30 H(1)   Bbb     0.1294    69.016    24.627    23.021  0.9483 -0.1331  0.2880
              Bcc     0.1613    86.039    30.701    28.700 -0.3109 -0.5712  0.7597
 
              Baa    -0.3367   -11.261    -4.018    -3.756  0.8330  0.1517  0.5320
    31 Zn(67) Bbb     0.1476     4.938     1.762     1.647 -0.5479  0.0927  0.8314
              Bcc     0.1890     6.323     2.256     2.109 -0.0768  0.9841 -0.1604
 
              Baa    -0.5000   -67.090   -23.939   -22.379  0.8831 -0.1207  0.4533
    32 C(13)  Bbb     0.0648     8.702     3.105     2.903 -0.4486 -0.4997  0.7410
              Bcc     0.4351    58.388    20.834    19.476 -0.1371  0.8577  0.4955
 
              Baa    -0.1416   -75.532   -26.952   -25.195 -0.1911  0.9582  0.2130
    33 H(1)   Bbb     0.0679    36.228    12.927    12.085 -0.6530 -0.2861  0.7013
              Bcc     0.0737    39.304    14.025    13.110  0.7329 -0.0050  0.6803
 
              Baa    -0.2865  -152.884   -54.553   -50.997 -0.1000  0.2034  0.9740
    34 H(1)   Bbb     0.1393    74.320    26.519    24.791  0.9924 -0.0503  0.1124
              Bcc     0.1472    78.564    28.034    26.206  0.0719  0.9778 -0.1968
 
              Baa    -1.7352   -71.140   -25.384   -23.730  0.9173 -0.1338  0.3752
    35 S(33)  Bbb    -0.0811    -3.326    -1.187    -1.110  0.3630  0.6686 -0.6490
              Bcc     1.8163    74.466    26.571    24.839 -0.1640  0.7315  0.6619
 
              Baa    -0.6433   -86.322   -30.802   -28.794  0.9056 -0.0034  0.4242
    36 C(13)  Bbb     0.2906    38.994    13.914    13.007 -0.4014 -0.3306  0.8542
              Bcc     0.3527    47.328    16.888    15.787 -0.1374  0.9438  0.3008
 
              Baa    -0.2488  -132.740   -47.365   -44.277  0.0902  0.9181  0.3859
    37 H(1)   Bbb     0.1135    60.565    21.611    20.202  0.9310  0.0599 -0.3600
              Bcc     0.1353    72.175    25.754    24.075  0.3536 -0.3918  0.8494
 
              Baa    -0.2685   -36.032   -12.857   -12.019 -0.3283 -0.4714  0.8185
    38 C(13)  Bbb    -0.0101    -1.358    -0.484    -0.453  0.8724 -0.4836  0.0714
              Bcc     0.2786    37.390    13.342    12.472  0.3622  0.7375  0.5700
 
              Baa    -0.1421   -75.804   -27.049   -25.285  0.1823  0.8708  0.4566
    39 H(1)   Bbb     0.0600    32.018    11.425    10.680  0.7041  0.2085 -0.6788
              Bcc     0.0821    43.786    15.624    14.606  0.6863 -0.4453  0.5751
 
              Baa    -0.2479  -132.253   -47.191   -44.115  0.7939 -0.1753  0.5822
    40 H(1)   Bbb     0.1082    57.720    20.596    19.253 -0.6049 -0.1316  0.7853
              Bcc     0.1397    74.533    26.595    24.862  0.0610  0.9757  0.2105
 
              Baa    -0.2002    -8.206    -2.928    -2.737  0.0999  0.9167 -0.3870
    41 S(33)  Bbb     0.0631     2.587     0.923     0.863  0.9609 -0.1898 -0.2015
              Bcc     0.1371     5.619     2.005     1.874  0.2581  0.3517  0.8998
 
              Baa    -1.7020   123.153    43.944    41.079  0.7577 -0.6011  0.2543
    42 O(17)  Bbb     0.7980   -57.740   -20.603   -19.260  0.5622  0.7990  0.2136
              Bcc     0.9040   -65.413   -23.341   -21.819 -0.3315 -0.0189  0.9433
 
              Baa    -1.7005   123.046    43.906    41.044  0.7564  0.5068  0.4135
    43 O(17)  Bbb     0.7404   -53.575   -19.117   -17.871 -0.6442  0.6867  0.3367
              Bcc     0.9601   -69.470   -24.789   -23.173 -0.1133 -0.5211  0.8459
 
              Baa    -1.6306   117.990    42.102    39.357  0.9958 -0.0355 -0.0840
    44 O(17)  Bbb    -0.2393    17.316     6.179     5.776  0.0826  0.7408  0.6666
              Bcc     1.8699  -135.306   -48.280   -45.133  0.0386 -0.6708  0.7407
 
              Baa    -0.4670  -249.143   -88.900   -83.105  0.6587 -0.5443 -0.5196
    45 H(1)   Bbb     0.1991   106.241    37.909    35.438  0.7524  0.4828  0.4481
              Bcc     0.2678   142.902    50.991    47.667  0.0070 -0.6860  0.7275
 
              Baa    -0.4511  -240.674   -85.878   -80.280  0.8887  0.3654  0.2771
    46 H(1)   Bbb     0.1955   104.329    37.227    34.801 -0.4556  0.6349  0.6240
              Bcc     0.2555   136.344    48.651    45.480  0.0521 -0.6807  0.7307
 
              Baa    -0.2806  -149.696   -53.415   -49.933 -0.6523  0.6972  0.2974
    47 H(1)   Bbb     0.1247    66.527    23.738    22.191  0.4069 -0.0089  0.9134
              Bcc     0.1559    83.169    29.677    27.742  0.6395  0.7168 -0.2779
 
              Baa    -0.2651  -141.426   -50.464   -47.175  0.4135  0.8732 -0.2578
    48 H(1)   Bbb     0.1272    67.880    24.221    22.642  0.8836 -0.4532 -0.1179
              Bcc     0.1378    73.546    26.243    24.532  0.2198  0.1790  0.9590
 
              Baa    -0.2891  -154.274   -55.049   -51.460 -0.1082  0.8740 -0.4737
    49 H(1)   Bbb     0.1283    68.445    24.423    22.831  0.8486 -0.1670 -0.5019
              Bcc     0.1609    85.829    30.626    28.629  0.5178  0.4563  0.7236
 
              Baa    -0.2801  -149.451   -53.328   -49.852  0.9101  0.0131  0.4142
    50 H(1)   Bbb     0.1248    66.565    23.752    22.204 -0.2395  0.8324  0.4998
              Bcc     0.1553    82.886    29.576    27.648 -0.3383 -0.5541  0.7606
 
              Baa    -0.2875  -153.379   -54.730   -51.162 -0.2648  0.5464  0.7945
    51 H(1)   Bbb     0.1389    74.106    26.443    24.719  0.2565  0.8342 -0.4882
              Bcc     0.1486    79.273    28.287    26.443  0.9295 -0.0745  0.3611
 

 ---------------------------------------------------------------------------------

 No NMR shielding tensors so no spin-rotation constants.
 Leave Link  601 at Sun Nov  8 12:09:48 2009, MaxMem=  393216000 cpu:       1.2
 (Enter XXXXXXX/x86_64/g09a02/g09/l602.exe)
 Merz-Kollman atomic radii used.
 Atom Element Radius
    1     6    1.50
    2     7    1.50
    3     1    1.20
    4     6    1.50
    5     1    1.20
    6     7    1.50
    7     6    1.50
    8     1    1.20
    9     6    1.50
   10     1    1.20
   11     1    1.20
   12     6    1.50
   13     8    1.40
   14     8    1.40
   15     6    1.50
   16     7    1.50
   17     1    1.20
   18     6    1.50
   19     1    1.20
   20     7    1.50
   21     6    1.50
   22     1    1.20
   23     6    1.50
   24     7    1.50
   25     1    1.20
   26     6    1.50
   27     1    1.20
   28     7    1.50
   29     6    1.50
   30     1    1.20
   31    30    1.00
   32     6    1.50
   33     1    1.20
   34     1    1.20
   35    16    1.75
   36     6    1.50
   37     1    1.20
   38     6    1.50
   39     1    1.20
   40     1    1.20
   41    16    1.75
   42     8    1.40
   43     8    1.40
   44     8    1.40
   45     1    1.20
   46     1    1.20
   47     1    1.20
   48     1    1.20
   49     1    1.20
   50     1    1.20
   51     1    1.20
 Generate VDW surfaces: Layer= 4 Dens= 1 Start= 1.400 Inc= 0.200

 **********************************************************************

            Electrostatic Properties Using The SCF Density

 **********************************************************************

       Atomic Center    1 is at  -0.801065  2.467963  3.076224
       Atomic Center    2 is at   0.197129  1.928710  3.891401
       Atomic Center    3 is at   0.395105  2.153673  4.844076
       Atomic Center    4 is at   0.923552  1.002505  3.164875
       Atomic Center    5 is at   1.771013  0.413221  3.535831
       Atomic Center    6 is at   0.359788  0.928619  1.916215
       Atomic Center    7 is at  -0.696716  1.836672  1.840375
       Atomic Center    8 is at  -1.404427  1.931464  0.947102
       Atomic Center    9 is at  -4.058423  3.641857 -0.846998
       Atomic Center   10 is at  -4.422656  3.730808  0.185321
       Atomic Center   11 is at  -4.941028  3.502846 -1.482926
       Atomic Center   12 is at  -3.123992  2.454266 -0.988386
       Atomic Center   13 is at  -2.868996  1.718221  0.030546
       Atomic Center   14 is at  -2.559249  2.166107 -2.073278
       Atomic Center   15 is at   2.290609  3.470546 -1.893751
       Atomic Center   16 is at   3.360311  2.599087 -2.111181
       Atomic Center   17 is at   4.137934  2.667190 -2.730925
       Atomic Center   18 is at   3.158422  1.446016 -1.377154
       Atomic Center   19 is at   3.812989  0.568734 -1.363385
       Atomic Center   20 is at   1.989970  1.600306 -0.681109
       Atomic Center   21 is at   1.438775  2.841577 -0.993583
       Atomic Center   22 is at   0.481595  3.186590 -0.584489
       Atomic Center   23 is at   4.730516 -1.780081  1.384041
       Atomic Center   24 is at   4.266539 -2.738855  0.475694
       Atomic Center   25 is at   4.748997 -3.516799  0.082185
       Atomic Center   26 is at   2.982309 -2.401607  0.076626
       Atomic Center   27 is at   2.362491 -2.947957 -0.657394
       Atomic Center   28 is at   2.616958 -1.280369  0.769562
       Atomic Center   29 is at   3.687588 -0.882381  1.566870
       Atomic Center   30 is at   3.624185  0.005310  2.200938
       Atomic Center   31 is at   1.186061  0.046844  0.294354
       Atomic Center   32 is at  -1.496260 -0.481909 -2.251866
       Atomic Center   33 is at  -1.809754  0.611725 -2.104150
       Atomic Center   34 is at  -1.406832 -0.683308 -3.325423
       Atomic Center   35 is at  -0.195353 -1.261347 -1.197559
       Atomic Center   36 is at  -2.118729 -1.514035 -1.384149
       Atomic Center   37 is at  -2.240115 -2.537831 -1.799702
       Atomic Center   38 is at  -3.177621 -1.114235 -0.437751
       Atomic Center   39 is at  -2.989865 -0.029675 -0.069279
       Atomic Center   40 is at  -4.058415 -0.904969 -1.093696
       Atomic Center   41 is at  -3.692972 -2.344219  0.796374
       Atomic Center   42 is at  -2.540151 -3.185984  1.189047
       Atomic Center   43 is at  -4.855301 -3.052116  0.232116
       Atomic Center   44 is at   2.023754 -2.997585 -3.373679
       Atomic Center   45 is at   1.390772 -2.476101 -2.873669
       Atomic Center   46 is at   2.886276 -2.638390 -3.103463
       Atomic Center   47 is at  -1.524696  3.233169  3.388918
       Atomic Center   48 is at  -3.608146  4.621817 -1.134496
       Atomic Center   49 is at   2.160271  4.423412 -2.411063
       Atomic Center   50 is at   5.725693 -1.753524  1.844935
       Atomic Center   51 is at  -4.029126 -1.652219  1.818766
      ESP Fit Center   52 is at  -1.851065  2.467963  4.894878
      ESP Fit Center   53 is at  -0.045569  4.122268  4.126224
      ESP Fit Center   54 is at  -2.546050  1.955589  4.126224
      ESP Fit Center   55 is at  -1.992030  1.093516  4.126224
      ESP Fit Center   56 is at   0.391871  4.196229  3.076224
      ESP Fit Center   57 is at  -2.840043  1.965400  3.076224
      ESP Fit Center   58 is at  -2.372938  1.075405  3.076224
      ESP Fit Center   59 is at   0.728883  3.451201  2.026224
      ESP Fit Center   60 is at  -0.045569  4.122268  2.026224
      ESP Fit Center   61 is at  -1.059887  4.268105  2.026224
      ESP Fit Center   62 is at  -2.546050  2.980337  2.026224
      ESP Fit Center   63 is at  -1.547856  1.416336  4.941401
      ESP Fit Center   64 is at  -0.993836  0.554264  4.941401
      ESP Fit Center   65 is at  -0.061692  0.128568  4.941401
      ESP Fit Center   66 is at   2.056587  2.904629  3.891401
      ESP Fit Center   67 is at   1.390065  3.656976  3.891401
      ESP Fit Center   68 is at   0.450256  4.013399  3.891401
      ESP Fit Center   69 is at  -1.374743  0.536153  3.891401
      ESP Fit Center   70 is at   0.395105  2.153673  6.524076
      ESP Fit Center   71 is at   1.382584  2.153673  6.203224
      ESP Fit Center   72 is at   0.700253  3.092821  6.203224
      ESP Fit Center   73 is at  -0.403783  2.734098  6.203224
      ESP Fit Center   74 is at  -0.403783  1.573247  6.203224
      ESP Fit Center   75 is at   0.700253  1.214524  6.203224
      ESP Fit Center   76 is at   1.992880  2.153673  5.363224
      ESP Fit Center   77 is at   1.619072  3.180702  5.363224
      ESP Fit Center   78 is at   0.672556  3.727174  5.363224
      ESP Fit Center   79 is at  -0.403783  3.537386  5.363224
      ESP Fit Center   80 is at  -1.106312  2.700144  5.363224
      ESP Fit Center   81 is at   1.619072  1.126643  5.363224
      ESP Fit Center   82 is at   0.398552  0.093178  4.983528
      ESP Fit Center   83 is at   2.453501  1.985743  4.214875
      ESP Fit Center   84 is at  -0.267413 -0.371942  4.214875
      ESP Fit Center   85 is at   0.664731 -0.797638  4.214875
      ESP Fit Center   86 is at   2.783010  1.978423  3.164875
      ESP Fit Center   87 is at   2.116488  2.730771  3.164875
      ESP Fit Center   88 is at   0.178882 -0.961030  3.164875
      ESP Fit Center   89 is at   2.453501  1.985743  2.114875
      ESP Fit Center   90 is at   1.679048  2.656810  2.114875
      ESP Fit Center   91 is at   1.771013  0.413221  5.215831
      ESP Fit Center   92 is at   2.758493  0.413221  4.894979
      ESP Fit Center   93 is at   2.076161  1.352370  4.894979
      ESP Fit Center   94 is at   2.076161 -0.525927  4.894979
      ESP Fit Center   95 is at   3.368788  0.413221  4.054979
      ESP Fit Center   96 is at   2.994980  1.440251  4.054979
      ESP Fit Center   97 is at   0.972126 -0.970493  4.054979
      ESP Fit Center   98 is at   2.048464 -1.160280  4.054979
      ESP Fit Center   99 is at   2.994980 -0.613809  4.054979
      ESP Fit Center  100 is at   2.994980  1.440251  3.016682
      ESP Fit Center  101 is at   2.048464 -1.160280  3.016682
      ESP Fit Center  102 is at  -0.831177 -0.445828  2.966215
      ESP Fit Center  103 is at   1.552724  2.656885  1.916215
      ESP Fit Center  104 is at  -1.212085 -0.463939  1.916215
      ESP Fit Center  105 is at  -0.384883 -1.034915  1.916215
      ESP Fit Center  106 is at   0.612915 -1.156070  1.916215
      ESP Fit Center  107 is at  -1.887681  0.462226  2.890375
      ESP Fit Center  108 is at   0.496220  3.564938  1.840375
      ESP Fit Center  109 is at  -2.268589  0.444114  1.840375
      ESP Fit Center  110 is at  -0.955537  3.636814  0.790375
      ESP Fit Center  111 is at  -2.203314  3.315177  1.466251
      ESP Fit Center  112 is at  -1.126976  3.504965  0.427954
      ESP Fit Center  113 is at  -1.099279  0.992315 -0.412046
      ESP Fit Center  114 is at  -2.528475  4.625095  0.203002
      ESP Fit Center  115 is at  -4.317244  5.441999  0.203002
      ESP Fit Center  116 is at  -5.249388  2.267410  0.203002
      ESP Fit Center  117 is at  -5.630296  5.034415 -0.846998
      ESP Fit Center  118 is at  -4.058423  3.641857 -2.946998
      ESP Fit Center  119 is at  -4.422656  3.730808  1.865321
      ESP Fit Center  120 is at  -3.435177  3.730808  1.544470
      ESP Fit Center  121 is at  -4.117508  4.669956  1.544470
      ESP Fit Center  122 is at  -5.221543  4.311234  1.544470
[...]
 1501 Fit       0.039465
 1502 Fit       0.047035
 1503 Fit       0.064010
 1504 Fit       0.078528
 1505 Fit       0.083716
 1506 Fit       0.074928
 1507 Fit       0.068779
 1508 Fit       0.060695
 1509 Fit       0.047466
 1510 Fit       0.036985
 1511 Fit       0.035386
 1512 Fit       0.044392
 1513 Fit       0.061103
 1514 Fit       0.054810
 1515 Fit       0.058227
 1516 Fit       0.051660
 1517 Fit       0.042519
 1518 Fit       0.035653
 1519 Fit       0.041598
 1520 Fit       0.042536
 1521 Fit       0.129480
 1522 Fit       0.140314
 1523 Fit       0.151411
 1524 Fit       0.097340
 1525 Fit       0.117150
 1526 Fit       0.106066
 1527 Fit       0.115555
 1528 Fit       0.117396
 1529 Fit       0.091122
 1530 Fit       0.082060
 1531 Fit       0.110024
 1532 Fit       0.096816
 1533 Fit       0.093694
 1534 Fit       0.099857
 1535 Fit       0.092948
 1536 Fit       0.088813
 1537 Fit       0.085771
 1538 Fit       0.084191
 1539 Fit       0.091101
 1540 Fit       0.087653
 1541 Fit       0.084169
 1542 Fit       0.080060
 1543 Fit       0.075776
 1544 Fit       0.087285
 1545 Fit       0.082420
 1546 Fit       0.074369
 1547 Fit       0.072078
 1548 Fit       0.064707
 1549 Fit       0.058423
 1550 Fit       0.073664
 1551 Fit       0.070916
 1552 Fit       0.064808
 1553 Fit       0.058983
 1554 Fit       0.054039
 1555 Fit       0.050616
 1556 Fit       0.060031
 1557 Fit       0.057486
 1558 Fit       0.052953
 1559 Fit       0.048876
 1560 Fit       0.035102
 1561 Fit       0.048203
 1562 Fit       0.045708
 1563 Fit       0.099539
 1564 Fit       0.097951
 1565 Fit       0.099967
 1566 Fit       0.102098
 1567 Fit       0.097400
 1568 Fit       0.095162
 1569 Fit       0.093758
 1570 Fit       0.091697
 1571 Fit       0.111469
 1572 Fit       0.100695
 1573 Fit       0.095433
 1574 Fit       0.091562
 1575 Fit       0.086673
 1576 Fit       0.117051
 1577 Fit       0.102237
 1578 Fit       0.094347
 1579 Fit       0.090352
 1580 Fit       0.101044
 1581 Fit       0.117197
 1582 Fit       0.114645
 1583 Fit       0.121584
 1584 Fit       0.112718
 1585 Fit       0.114600
 1586 Fit       0.117981
 1587 Fit       0.125786
 1588 Fit       0.115913
 1589 Fit       0.114161
 1590 Fit       0.117186
 1591 Fit       0.118978
 1592 Fit       0.124196
 1593 Fit       0.124937
 1594 Fit       0.118814
 1595 Fit       0.123383
 1596 Fit       0.124124
 1597 Fit       0.130012
 1598 Fit       0.079454
 1599 Fit       0.085765
 1600 Fit       0.080898
 1601 Fit       0.075290
 1602 Fit       0.085585
 1603 Fit       0.080909
 1604 Fit       0.077817
 1605 Fit       0.072611
 1606 Fit       0.087047
 1607 Fit       0.099100
 1608 Fit       0.079140
 1609 Fit       0.079415
 1610 Fit       0.093162
 1611 Fit       0.090829
 1612 Fit       0.071643
 1613 Fit       0.074457
 1614 Fit       0.080651
 1615 Fit       0.095615
 1616 Fit       0.089956
 1617 Fit       0.087271
 1618 Fit       0.095764
 1619 Fit       0.090126
 1620 Fit       0.085650
 1621 Fit       0.080969
 1622 Fit       0.100668
 1623 Fit       0.094957
 1624 Fit       0.095115
 1625 Fit       0.102690
 1626 Fit       0.115577
 1627 Fit       0.127608
 1628 Fit       0.105641
 1629 Fit       0.086311
 1630 Fit       0.089708
 1631 Fit       0.116985
 1632 Fit       0.106472
 1633 Fit       0.100778
 1634 Fit       0.099338
 1635 Fit       0.084544
 1636 Fit       0.104043
 1637 Fit       0.097036
 1638 Fit       0.101741
 1639 Fit       0.106295
 1640 Fit       0.110994
 1641 Fit       0.107357
 1642 Fit       0.104768
 1643 Fit       0.103044
 1644 Fit       0.104693
 1645 Fit       0.110306
 1646 Fit       0.117595
 1647 Fit       0.111626
 1648 Fit       0.107407
 1649 Fit       0.105801
 1650 Fit       0.105402
 1651 Fit       0.103177
 1652 Fit       0.117393
 1653 Fit       0.121380
 1654 Fit       0.116096
 1655 Fit       0.109257
 1656 Fit       0.106445
 1657 Fit       0.120368
 1658 Fit       0.104683
 1659 Fit       0.126510
 1660 Fit       0.090611
 1661 Fit       0.100043
 1662 Fit       0.130346
 1663 Fit       0.116758
 1664 Fit       0.083397
 1665 Fit       0.082129
 1666 Fit       0.089878
 1667 Fit       0.105358
 1668 Fit       0.116269
 1669 Fit       0.122791
 1670 Fit       0.116626
 1671 Fit       0.126890
 1672 Fit       0.128001
 1673 Fit       0.108695
 1674 Fit       0.115408
 1675 Fit       0.122770
 1676 Fit       0.106002
 1677 Fit       0.114574
 1678 Fit       0.082611
 1679 Fit       0.082925
 1680 Fit       0.076239
 1681 Fit       0.080243
 1682 Fit       0.056780
 1683 Fit       0.052634
 1684 Fit       0.048905
 1685 Fit       0.048980
 1686 Fit       0.047405
 1687 Fit       0.047187
 1688 Fit       0.048994
 1689 Fit       0.052483
 1690 Fit       0.047405
 1691 Fit       0.046476
 1692 Fit       0.033040
 1693 Fit       0.037796
 1694 Fit       0.063627
 1695 Fit       0.068067
 1696 Fit       0.059983
 1697 Fit       0.056566
 1698 Fit       0.055469
 1699 Fit       0.073729
 1700 Fit       0.065062
 1701 Fit       0.058406
 1702 Fit       0.054304
 1703 Fit       0.052229
 1704 Fit       0.051535
 1705 Fit       0.050634
 1706 Fit       0.051059
 1707 Fit       0.049303
 1708 Fit       0.048673
 1709 Fit       0.048819
 1710 Fit       0.046400
 1711 Fit       0.046523
 1712 Fit       0.047617
 1713 Fit       0.050512
 1714 Fit       0.045656
 1715 Fit       0.045279
 1716 Fit       0.045586
 1717 Fit       0.046555
 1718 Fit       0.048810
 1719 Fit       0.043936
 1720 Fit       0.044081
 1721 Fit       0.044442
 1722 Fit       0.044610
 1723 Fit       0.040890
 1724 Fit       0.041430
 1725 Fit       0.038262
 1726 Fit       0.034910
 1727 Fit       0.056216
 1728 Fit       0.056561
 1729 Fit       0.050439
 1730 Fit       0.057146
 1731 Fit       0.068658
 1732 Fit       0.049871
 1733 Fit       0.051385
 1734 Fit       0.061083
 1735 Fit       0.053393
 1736 Fit       0.042604
 1737 Fit       0.038289
 1738 Fit       0.046557
 1739 Fit       0.054184
 1740 Fit       0.045521
 1741 Fit       0.036251
 1742 Fit       0.028773
 1743 Fit       0.025243
 1744 Fit       0.025446
 1745 Fit       0.027992
 1746 Fit       0.034538
 1747 Fit       0.041029
 1748 Fit       0.030774
 1749 Fit       0.024398
 1750 Fit       0.026347
 1751 Fit       0.037132
 1752 Fit       0.047149
 1753 Fit       0.031163
 1754 Fit       0.099430
 1755 Fit       0.093858
 1756 Fit       0.096181
 1757 Fit       0.092999
 1758 Fit       0.093035
 1759 Fit       0.101344
 1760 Fit       0.096825
 1761 Fit       0.094820
 1762 Fit       0.107676
 1763 Fit       0.083719
 1764 Fit       0.067549
 1765 Fit       0.077926
 1766 Fit       0.074343
 1767 Fit       0.085711
 1768 Fit       0.085775
 1769 Fit       0.092498
 1770 Fit       0.097884
 1771 Fit       0.108824
 1772 Fit       0.108429
 1773 Fit       0.121285
 1774 Fit       0.110361
 1775 Fit       0.103537
 1776 Fit       0.124945
 1777 Fit       0.115292
 1778 Fit       0.108163
 1779 Fit       0.110700
 1780 Fit       0.114766
 1781 Fit       0.100795
 1782 Fit       0.113170
 1783 Fit       0.123540
 1784 Fit       0.104001
 1785 Fit       0.097651
 1786 Fit       0.103233
 1787 Fit       0.114244
 1788 Fit       0.107094
 1789 Fit       0.124024
 1790 Fit       0.117043
 1791 Fit       0.135628
 1792 Fit       0.120826
 1793 Fit       0.115812
 1794 Fit       0.113849
 1795 Fit       0.139759
 1796 Fit       0.128750
 1797 Fit       0.117687
 1798 Fit       0.114090
 1799 Fit       0.113556
 1800 Fit       0.128248
 1801 Fit       0.123191
 1802 Fit       0.114678
 1803 Fit       0.112342
 1804 Fit       0.117168
 1805 Fit       0.111843
 1806 Fit       0.120848
 1807 Fit       0.112063
 1808 Fit       0.130027
 1809 Fit       0.120434
 1810 Fit       0.132615
 1811 Fit       0.099714
 1812 Fit       0.135069
 1813 Fit       0.138028
 1814 Fit       0.111593
 1815 Fit       0.135863
 1816 Fit       0.137577
 1817 Fit       0.139538
 1818 Fit       0.141708
 1819 Fit       0.139486
 1820 Fit       0.138576
 1821 Fit       0.120209
 1822 Fit       0.107820
 1823 Fit       0.102298
 1824 Fit       0.102717
 1825 Fit       0.096411
 1826 Fit       0.095431
 1827 Fit       0.093439
 1828 Fit       0.093758
 1829 Fit       0.095047
 1830 Fit       0.067865
 1831 Fit       0.093635
 1832 Fit       0.091799
 1833 Fit       0.086744
 1834 Fit       0.092583
 1835 Fit       0.081393
 1836 Fit       0.073601
 1837 Fit       0.111183
 1838 Fit       0.119718
 1839 Fit       0.103704
 1840 Fit       0.105526
 1841 Fit       0.100607
 1842 Fit       0.100627
 1843 Fit       0.104730
 1844 Fit       0.108495
 1845 Fit       0.121643
 1846 Fit       0.126979
 1847 Fit       0.123235
 1848 Fit       0.122660
 1849 Fit       0.128183
 1850 Fit       0.132677
 1851 Fit       0.098252
 1852 Fit       0.100072
 1853 Fit       0.106620
 1854 Fit       0.098794
 1855 Fit       0.102407
 1856 Fit       0.108764
 1857 Fit       0.115719
 1858 Fit       0.106263
 1859 Fit       0.126778
 1860 Fit       0.127857
 1861 Fit       0.114353
 1862 Fit       0.127218
 1863 Fit       0.128938
 1864 Fit       0.129952
 1865 Fit       0.135765
 1866 Fit       0.138152
 1867 Fit       0.111562
 1868 Fit       0.112481
 1869 Fit       0.115668
 1870 Fit       0.121140
 1871 Fit       0.125915
 1872 Fit       0.113804
 1873 Fit       0.113708
 1874 Fit       0.115977
 1875 Fit       0.119986
 1876 Fit       0.125566
 1877 Fit       0.116710
 1878 Fit       0.117078
 1879 Fit       0.120197
 1880 Fit       0.129419
 1881 Fit       0.126443
 1882 Fit       0.123506
 1883 Fit       0.092758
 1884 Fit       0.084158
 1885 Fit       0.092107
 1886 Fit       0.091008
 1887 Fit       0.100451
 1888 Fit       0.087684
 1889 Fit       0.098524
 1890 Fit       0.082929
 1891 Fit       0.090591
 1892 Fit       0.107891
 1893 Fit       0.095045
 1894 Fit       0.099898
 1895 Fit       0.082888
 1896 Fit       0.124498
 1897 Fit       0.119735
 1898 Fit       0.113785
 1899 Fit       0.111792
 1900 Fit       0.106797
 1901 Fit       0.125381
 1902 Fit       0.126667
 1903 Fit       0.129194
 1904 Fit       0.125485
 1905 Fit       0.131432
 1906 Fit       0.124221
 1907 Fit       0.127527
 1908 Fit       0.125819
 1909 Fit       0.123881
 1910 Fit       0.126346
 1911 Fit       0.126615
 1912 Fit       0.126425
 1913 Fit       0.078807
 1914 Fit       0.054882
 1915 Fit       0.067713
 1916 Fit       0.065106
 1917 Fit       0.056512
 1918 Fit       0.081197
 1919 Fit       0.080164
 1920 Fit       0.068400
 1921 Fit       0.053950
 1922 Fit       0.051257
 1923 Fit       0.059188
 1924 Fit       0.065947
 1925 Fit       0.069818
 1926 Fit       0.071400
 1927 Fit       0.070870
 1928 Fit       0.072823
 1929 Fit       0.069012
 1930 Fit       0.062268
 1931 Fit       0.064091
 1932 Fit       0.067654
 1933 Fit       0.069799
 1934 Fit       0.067597
 1935 Fit       0.054996
 1936 Fit       0.058959
 1937 Fit       0.069427
 1938 Fit       0.064977
 1939 Fit       0.100609
 1940 Fit       0.092084
 1941 Fit       0.076622
 1942 Fit       0.069065
 1943 Fit       0.053124
 1944 Fit       0.049794
 1945 Fit       0.055497
 1946 Fit       0.061551
 1947 Fit       0.062901
 1948 Fit       0.060468
 1949 Fit       0.063164
 1950 Fit       0.067613
 1951 Fit       0.072236
 1952 Fit       0.068659
 1953 Fit       0.072814
 1954 Fit       0.060614
 1955 Fit       0.056922
 1956 Fit       0.054904
 1957 Fit       0.048483
 1958 Fit       0.054046
 1959 Fit       0.054770
 1960 Fit       0.051060
 1961 Fit       0.049331
 1962 Fit       0.057390
 1963 Fit       0.059604
 1964 Fit       0.065334
 1965 Fit       0.067802
 1966 Fit       0.065214
 1967 Fit       0.077649
 1968 Fit       0.066526
 1969 Fit       0.056590
 1970 Fit       0.053622
 1971 Fit       0.077487
 1972 Fit       0.083538
 1973 Fit       0.060397
 1974 Fit       0.051036
 1975 Fit       0.044567
 1976 Fit       0.039186
 1977 Fit       0.076551
 1978 Fit       0.061814
 1979 Fit       0.049605
 1980 Fit       0.039130
 1981 Fit       0.033312
 1982 Fit       0.030601
 1983 Fit       0.026764
 1984 Fit       0.064515
 1985 Fit       0.065688
 1986 Fit       0.057007
 1987 Fit       0.043132
 1988 Fit       0.018390
 1989 Fit       0.019097
 1990 Fit       0.058775
 1991 Fit       0.058950
 1992 Fit       0.047718
 1993 Fit       0.016486
 1994 Fit       0.046773
 1995 Fit       0.016922
 1996 Fit       0.024833
 1997 Fit       0.029137
 1998 Fit       0.044114
 1999 Fit       0.051542
 2000 Fit       0.040216
 2001 Fit       0.040276
 2002 Fit       0.057230
 2003 Fit       0.066952
 2004 Fit       0.029161
 2005 Fit       0.035183
 2006 Fit       0.045522
 2007 Fit       0.066359
 2008 Fit       0.077082
 2009 Fit       0.022716
 2010 Fit       0.029078
 2011 Fit       0.039556
 2012 Fit       0.052950
 2013 Fit       0.017449
 2014 Fit       0.023838
 2015 Fit       0.032893
 2016 Fit       0.045600
 2017 Fit       0.061714
 2018 Fit       0.022404
 2019 Fit       0.031813
 2020 Fit       0.044617
 2021 Fit       0.045679
 2022 Fit       0.032168
 2023 Fit       0.024430
 2024 Fit       0.021941
 2025 Fit       0.027131
 2026 Fit       0.019121
 2027 Fit       0.015090
 2028 Fit       0.013696
 2029 Fit       0.013989
 2030 Fit       0.032113
 2031 Fit       0.021827
 2032 Fit       0.015898
 2033 Fit       0.012727
 2034 Fit       0.011425
 2035 Fit       0.011705
 2036 Fit       0.013268
 2037 Fit       0.033105
 2038 Fit       0.021920
 2039 Fit       0.016057
 2040 Fit       0.013373
 2041 Fit       0.012978
 2042 Fit       0.015066
 2043 Fit       0.020441
 2044 Fit       0.032139
 2045 Fit       0.022230
 2046 Fit       0.018171
 2047 Fit       0.018176
 2048 Fit       0.022830
 2049 Fit       0.035347
 2050 Fit       0.030627
 2051 Fit       0.028257
 2052 Fit       0.042788
 2053 Fit       0.046283
 2054 Fit       0.059697
 2055 Fit       0.063848
 2056 Fit       0.077737
 2057 Fit       0.101428
 2058 Fit       0.058127
 2059 Fit       0.048871
 2060 Fit       0.047317
 2061 Fit       0.052843
 2062 Fit       0.065021
 2063 Fit       0.082725
 2064 Fit       0.103235
 2065 Fit       0.092691
 2066 Fit       0.059883
 2067 Fit       0.047420
 2068 Fit       0.041002
 2069 Fit       0.041608
 2070 Fit       0.049074
 2071 Fit       0.062256
 2072 Fit       0.078795
 2073 Fit       0.071663
 2074 Fit       0.078805
 2075 Fit       0.078613
 2076 Fit       0.072959
 2077 Fit       0.066951
 2078 Fit       0.061405
 2079 Fit       0.052683
 2080 Fit       0.043536
 2081 Fit       0.038479
 2082 Fit       0.039892
 2083 Fit       0.047744
 2084 Fit       0.059721
 2085 Fit       0.055072
 2086 Fit       0.058531
 2087 Fit       0.053278
 2088 Fit       0.045325
 2089 Fit       0.039913
 2090 Fit       0.044640
 2091 Fit       0.046140
 2092 Fit       0.136005
 2093 Fit       0.145633
 2094 Fit       0.111462
 2095 Fit       0.127571
 2096 Fit       0.114058
 2097 Fit       0.124054
 2098 Fit       0.133593
 2099 Fit       0.102868
 2100 Fit       0.095042
 2101 Fit       0.103509
 2102 Fit       0.105000
 2103 Fit       0.081882
 2104 Fit       0.093346
 2105 Fit       0.090867
 2106 Fit       0.097756
 2107 Fit       0.089566
 2108 Fit       0.085116
 2109 Fit       0.082653
 2110 Fit       0.082460
 2111 Fit       0.089450
 2112 Fit       0.085020
 2113 Fit       0.081648
 2114 Fit       0.078745
 2115 Fit       0.076329
 2116 Fit       0.087078
 2117 Fit       0.083209
 2118 Fit       0.079491
 2119 Fit       0.075354
 2120 Fit       0.069554
 2121 Fit       0.083488
 2122 Fit       0.077288
 2123 Fit       0.072532
 2124 Fit       0.064639
 2125 Fit       0.058333
 2126 Fit       0.074799
 2127 Fit       0.066674
 2128 Fit       0.060094
 2129 Fit       0.054987
 2130 Fit       0.068542
 2131 Fit       0.062926
 2132 Fit       0.057312
 2133 Fit       0.052661
 2134 Fit       0.049217
 2135 Fit       0.056341
 2136 Fit       0.054360
 2137 Fit       0.050331
 2138 Fit       0.046861
 2139 Fit       0.045904
 2140 Fit       0.043950
 2141 Fit       0.094182
 2142 Fit       0.097570
 2143 Fit       0.092954
 2144 Fit       0.091034
 2145 Fit       0.090769
 2146 Fit       0.098224
 2147 Fit       0.092386
 2148 Fit       0.089178
 2149 Fit       0.086809
 2150 Fit       0.083497
 2151 Fit       0.105401
 2152 Fit       0.094994
 2153 Fit       0.089520
 2154 Fit       0.085547
 2155 Fit       0.081088
 2156 Fit       0.096419
 2157 Fit       0.089090
 2158 Fit       0.086218
 2159 Fit       0.095732
 2160 Fit       0.111890
 2161 Fit       0.108631
 2162 Fit       0.115338
 2163 Fit       0.106994
 2164 Fit       0.107714
 2165 Fit       0.111423
 2166 Fit       0.119378
 2167 Fit       0.108018
 2168 Fit       0.106871
 2169 Fit       0.109037
 2170 Fit       0.111308
 2171 Fit       0.116622
 2172 Fit       0.112554
 2173 Fit       0.109411
 2174 Fit       0.112952
 2175 Fit       0.114435
 2176 Fit       0.119357
 2177 Fit       0.123421
 2178 Fit       0.115347
 2179 Fit       0.120498
 2180 Fit       0.074806
 2181 Fit       0.081184
 2182 Fit       0.076383
 2183 Fit       0.070785
 2184 Fit       0.082540
 2185 Fit       0.077731
 2186 Fit       0.073475
 2187 Fit       0.068397
 -----------------------------------------------------------------
 Leave Link  602 at Sun Nov  8 12:09:49 2009, MaxMem=  393216000 cpu:       0.7
 (Enter XXXXXXX/x86_64/g09a02/g09/l9999.exe)

 Test job not archived.
 1\1\GINC-JSL1\SP\RHF\6-31G(d)\C14H23N6O5S2Zn1(1+)\CS5381\08-Nov-2009\0
 \\#p hf/6-31g(d) iop(6/33=2) pop=mk sp test scf=(xqc,tight)\\Gaussian 
 Calc for RESP fitting based on mmp2_full_r_06_final.log two-layer onio
 m calculation. H(igh) layer is extracted. There are 5 capping atoms.\\
 1,1\C,0,51.48688,37.986447,51.544353\N,0,52.285869,37.799285,52.674966
 \H,0,53.283235,37.807277,52.725838\C,0,51.473028,37.576078,53.771714\H
 ,0,51.811678,37.396937,54.799468\N,0,50.172937,37.664771,53.342368\C,0
 ,50.163795,37.903598,51.967817\H,0,49.221113,38.109278,51.353958\C,0,4
 7.524966,38.557872,48.174369\H,0,48.464464,39.092206,47.9792\H,0,46.73
 3105,39.10997,47.653923\C,0,47.232004,38.508798,49.662754\O,0,48.04322
 9,39.057214,50.491103\O,0,46.22355,37.924599,50.132533\C,0,47.57921,33
 .569813,52.242731\N,0,47.322576,33.210775,53.567952\H,0,46.88743,32.39
 8723,53.948263\C,0,47.672952,34.26063,54.395096\H,0,47.562414,34.28702
 4,55.483837\N,0,48.17304,35.259175,53.603651\C,0,48.116311,34.851287,5
 2.272254\H,0,48.432183,35.492353,51.440482\C,0,49.691301,35.806358,58.
 142145\N,0,48.492611,36.441749,58.487161\H,0,47.993279,36.415882,59.34
 9026\C,0,47.984327,37.088315,57.37099\H,0,47.035054,37.651932,57.31925
 8\N,0,48.879964,36.915698,56.351748\C,0,49.926818,36.119414,56.81041\H
 ,0,50.75574,35.838918,56.155988\Zn,0,48.54083,37.069246,54.37787\C,0,4
 5.52426,38.623531,52.815128\H,0,45.904744,38.262946,51.794665\H,0,44.4
 68135,38.349122,52.917025\S,0,46.537256,38.422084,54.346371\C,0,45.961
 526,39.959076,53.295545\H,0,45.271232,40.524406,53.958473\C,0,46.78379
 2,40.807248,52.411665\H,0,47.457251,40.142166,51.739792\H,0,46.067043,
 41.147812,51.624175\S,0,47.53342,42.289251,53.14871\O,0,47.877205,42.0
 35177,54.566107\O,0,46.608187,43.406674,52.892145\O,0,44.389507,37.112
 682,56.865716\H,0,44.894815,37.434233,56.114789\H,0,44.890651,36.33584
 5,57.167976\H,0,51.8647137,38.1765395,50.5304167\H,0,47.593838,37.5580
 79,47.6830473\H,0,47.3231332,32.9526126,51.3789938\H,0,50.3063927,35.1
 825391,58.8024622\H,0,48.6307026,42.4460578,52.5095452\\Version=AM64L-
 G09RevA.02\State=1-A\HF=-3816.7438861\RMSD=3.849e-09\Dipole=4.1455377,
 -6.9754193,3.6893706\Quadrupole=-3.8149478,-7.6790034,11.4939511,7.099
 5635,-0.0069048,-25.1181525\PG=C01 [X(C14H23N6O5S2Zn1)]\\@


 ABSOLUTISM, OBSOLETISM -- IF IT WORKS, IT'S OUT OF DATE

                          -- STAFFORD BEER
 Job cpu time:  0 days  0 hours 17 minutes 34.5 seconds.
 File lengths (MBytes):  RWF=    134 Int=      0 D2E=      0 Chk=     10 Scr=      1
 Normal termination of Gaussian 09 at Sun Nov  8 12:09:50 2009.
