 Entering Gaussian System, Link 0=XXXXXXX/x86_64/g09a02/g09/g09
 Initial command:
 XXXXXXX/x86_64/g09a02/g09/l1.exe /tmp/pbs.183396.pbs/Gau-10138.inp -scrdir=/tmp/pbs.183396.pbs/
 Entering Link 1 = XXXXXXX/x86_64/g09a02/g09/l1.exe PID=     10147.
  
 Copyright (c) 1988,1990,1992,1993,1995,1998,2003,2009, Gaussian, Inc.
                  All Rights Reserved.
  
 This is part of the Gaussian(R) 09 program.  It is based on
 the Gaussian(R) 03 system (copyright 2003, Gaussian, Inc.),
 the Gaussian(R) 98 system (copyright 1998, Gaussian, Inc.),
 the Gaussian(R) 94 system (copyright 1995, Gaussian, Inc.),
 the Gaussian 92(TM) system (copyright 1992, Gaussian, Inc.),
 the Gaussian 90(TM) system (copyright 1990, Gaussian, Inc.),
 the Gaussian 88(TM) system (copyright 1988, Gaussian, Inc.),
 the Gaussian 86(TM) system (copyright 1986, Carnegie Mellon
 University), and the Gaussian 82(TM) system (copyright 1983,
 Carnegie Mellon University). Gaussian is a federally registered
 trademark of Gaussian, Inc.
  
 This software contains proprietary and confidential information,
 including trade secrets, belonging to Gaussian, Inc.
  
 This software is provided under written license and may be
 used, copied, transmitted, or stored only in accord with that
 written license.
  
 The following legend is applicable only to US Government
 contracts under FAR:
  
                    RESTRICTED RIGHTS LEGEND
  
 Use, reproduction and disclosure by the US Government is
 subject to restrictions as set forth in subparagraphs (a)
 and (c) of the Commercial Computer Software - Restricted
 Rights clause in FAR 52.227-19.
  
 Gaussian, Inc.
 340 Quinnipiac St., Bldg. 40, Wallingford CT 06492
  
  
 ---------------------------------------------------------------
 Warning -- This program may not be used in any manner that
 competes with the business of Gaussian, Inc. or will provide
 assistance to any competitor of Gaussian, Inc.  The licensee
 of this program is prohibited from giving any competitor of
 Gaussian, Inc. access to this program.  By using this program,
 the user acknowledges that Gaussian, Inc. is engaged in the
 business of creating and licensing software in the field of
 computational chemistry and represents and warrants to the
 licensee that it is not a competitor of Gaussian, Inc. and that
 it will not use this program in any manner prohibited above.
 ---------------------------------------------------------------
  

 Cite this work as:
 Gaussian 09, Revision A.02,
 M. J. Frisch, G. W. Trucks, H. B. Schlegel, G. E. Scuseria, 
 M. A. Robb, J. R. Cheeseman, G. Scalmani, V. Barone, B. Mennucci, 
 G. A. Petersson, H. Nakatsuji, M. Caricato, X. Li, H. P. Hratchian, 
 A. F. Izmaylov, J. Bloino, G. Zheng, J. L. Sonnenberg, M. Hada, 
 M. Ehara, K. Toyota, R. Fukuda, J. Hasegawa, M. Ishida, T. Nakajima, 
 Y. Honda, O. Kitao, H. Nakai, T. Vreven, J. A. Montgomery, Jr., 
 J. E. Peralta, F. Ogliaro, M. Bearpark, J. J. Heyd, E. Brothers, 
 K. N. Kudin, V. N. Staroverov, R. Kobayashi, J. Normand, 
 K. Raghavachari, A. Rendell, J. C. Burant, S. S. Iyengar, J. Tomasi, 
 M. Cossi, N. Rega, J. M. Millam, M. Klene, J. E. Knox, J. B. Cross, 
 V. Bakken, C. Adamo, J. Jaramillo, R. Gomperts, R. E. Stratmann, 
 O. Yazyev, A. J. Austin, R. Cammi, C. Pomelli, J. W. Ochterski, 
 R. L. Martin, K. Morokuma, V. G. Zakrzewski, G. A. Voth, 
 P. Salvador, J. J. Dannenberg, S. Dapprich, A. D. Daniels, 
 O. Farkas, J. B. Foresman, J. V. Ortiz, J. Cioslowski, 
 and D. J. Fox, Gaussian, Inc., Wallingford CT, 2009.
 
 ******************************************
 Gaussian 09:  AM64L-G09RevA.02 11-Jun-2009
                 6-Nov-2009 
 ******************************************
 %chk=mmp2_partial_r_06.chk
 %mem=3000MB
 %nprocshared=4
 Will use up to    4 processors via shared memory.
 ----------------------------------------------------------------------
 #p oniom(pm3:amber=hardfirst) nosymm geom=connectivity iop(2/15=3) tes
 t opt=quadmac
 ----------------------------------------------------------------------
 1/14=-1,18=1000020,38=1,52=2,56=2,57=2,64=103,98=5,115=4/1,3;
 2/9=110,12=2,15=3,17=6,18=5,40=1/2;
 1/14=-1,18=1000020,38=1,52=2,53=3172,64=103,98=5,115=4/20;
 3/5=30,11=9,16=1,25=1,30=1,41=10300000,43=2,71=1/1;
 4/20=11,22=1,24=3,112=4/2;
 7/7=1,30=1,33=-1,44=-1,88=4/16;
 1/14=-1,18=1000020,52=2,53=2032,98=5,115=4/20;
 3/5=2,16=1,25=1,41=800000,71=1/1,2,3;
 4/35=1,112=4/1;
 5/5=2,35=1,38=5/2;
 6/7=2,8=2,9=2,10=2,28=1/1;
 7/7=1,30=1,33=-1,88=4/1,2,3,16;
 1/14=-1,18=1000020,52=2,53=1022,64=103,98=5,115=4/20;
 3/5=30,11=9,16=1,25=1,30=1,41=10300000,43=2,71=1/1;
 4/20=11,22=1,24=3,112=4/2;
 7/7=1,30=1,33=-1,44=-1,88=4/16;
 1/14=-1,18=1000020,52=2,53=3015,64=103,98=5,115=4/20;
 7/9=1,44=-1,88=4/16;
 1/14=-1,18=1000020,52=2,64=103,98=5,115=4/3(2);
 2/9=110,15=3/2;
 99//99;
 2/9=110,15=3/2;
 1/14=-1,18=1000020,52=2,53=3173,64=103,98=5,115=4/20;
 3/5=30,11=9,16=1,25=1,30=1,41=10300000,43=2,71=1/1;
 4/16=2,20=11,22=1,24=3,112=4/2;
 7/7=1,30=1,33=-1,44=-1,88=4/16;
 1/14=-1,18=1000020,52=2,53=2033,98=5,115=4/20;
 3/5=2,16=1,25=1,41=800000,71=1,135=20/1,2,3;
 4/5=5,16=3,35=1,112=4/1;
 5/5=2,35=1,38=5/2;
 7/7=1,30=1,33=-1,88=4/1,2,3,16;
 1/14=-1,18=1000020,52=2,53=1023,64=103,98=5,115=4/20;
 3/5=30,11=9,16=1,25=1,30=1,41=10300000,43=2,71=1/1;
 4/16=2,20=11,22=1,24=3,112=4/2;
 7/7=1,30=1,33=-1,44=-1,88=4/16;
 1/14=-1,18=1000020,52=2,53=3015,64=103,98=5,115=4/20;
 7/9=1,44=-1,88=4/16;
 1/14=-1,18=1000020,52=2,64=103,98=5,115=4/3(-16);
 2/9=110,15=3/2;
 99//99;
 Leave Link    1 at Fri Nov  6 16:59:55 2009, MaxMem=  393216000 cpu:       0.1
 (Enter XXXXXXX/x86_64/g09a02/g09/l101.exe)
 ------------------
 MMP2 reduced model
 ------------------
 Symbolic Z-matrix:
 Charge = -3 Multiplicity = 1 for low   level calculation on real  system.
 Charge =  1 Multiplicity = 1 for high  level calculation on model system.
 Charge =  1 Multiplicity = 1 for low   level calculation on model system.
 N-N3-0.096600        -1    41.507    23.202    52.275   L 
 H-H-0.216500         -1    40.56     22.841    52.249   L 
 H-H-0.216500         -1    41.687    23.653    51.384   L 
 H-H-0.216500         -1    41.559    23.902    53.006   L 
 C-CT--0.001500       -1    42.49     22.115    52.511   L 
 H-HP-0.118000        -1    42.377    21.793    53.546   L 
 C-CT-0.021200        -1    42.207    20.897    51.605   L 
 H-HC-0.028300        -1    42.875    20.087    51.897   L 
 H-HC-0.028300        -1    41.186    20.562    51.79    L 
 C-CT--0.004800       -1    42.384    21.151    50.096   L 
 H-HC-0.012100        -1    41.676    21.906    49.762   L 
 H-HC-0.012100        -1    43.392    21.52     49.916   L 
 C-CT--0.060800       -1    42.18     19.886    49.249   L 
 H-HC-0.063300        -1    42.584    20.065    48.25    L 
 H-HC-0.063300        -1    42.734    19.064    49.698   L 
 C-CT--0.018100       -1    40.698    19.515    49.121   L 
 H-HP-0.117100        -1    40.248    19.462    50.116   L 
 H-HP-0.117100        -1    40.19     20.309    48.565   L 
 N-N3--0.376400       -1    40.518    18.22     48.426   L 
 H-H-0.338200         -1    40.883    17.447    48.979   L 
 H-H-0.338200         -1    39.534    18.043    48.246   L 
 H-H-0.338200         -1    41.008    18.201    47.53    L 
 C-C-0.721400         -1    43.921    22.648    52.362   L 
 O-O--0.601300        -1    44.09     23.607    51.612   L 
 N-N--0.088116        -1    44.936    22.076    53.043   L 
 C-CT--0.011906       -1    44.826    20.973    53.991   L 
 H-H1-0.043951        -1    44.423    20.075    53.524   L 
 H-H1-0.043950        -1    44.198    21.278    54.831   L 
 C-CT-0.013059        -1    46.247    20.707    54.489   L 
 H-HC-0.019574        -1    46.75     20.01     53.819   L 
 H-HC-0.019574        -1    46.254    20.333    55.513   L 
 C-CT--0.003351       -1    46.91     22.076    54.379   L 
 H-HC-0.019352        -1    47.996    21.998    54.305   L 
 H-HC-0.019352        -1    46.634    22.682    55.244   L 
 C-CT--0.034577       -1    46.275    22.67     53.118   L 
 H-H1-0.059977        -1    46.188    23.749    53.251   L 
 C-C-0.333720         -1    47.155    22.432    51.883   L 
 O-O--0.434559        -1    48.162    23.116    51.736   L 
 N-N--0.435875        -1    46.797    21.503    50.987   L 
 H-H-0.251302         -1    45.969    20.949    51.15    L 
 C-CT--0.038773       -1    47.519    21.252    49.729   L 
 H-H1-0.129478        -1    48.072    22.15     49.451   L 
 C-CT--0.108273       -1    48.518    20.082    49.892   L 
 H-HC-0.045214        -1    47.957    19.154    50.019   L 
 H-HC-0.045214        -1    49.105    20.       48.976   L 
 C-CT-0.033341        -1    49.48     20.234    51.083   L 
 H-HC-0.010208        -1    49.973    21.204    51.022   L 
 H-HC-0.010208        -1    48.898    20.19     52.004   L 
 C-CT--0.047841       -1    50.557    19.138    51.131   L 
 H-HC-0.070715        -1    50.143    18.194    50.775   L 
 H-HC-0.070715        -1    51.386    19.419    50.48    L 
 C-CT--0.069974       -1    51.039    18.962    52.579   L 
 H-HP-0.119522        -1    51.419    19.915    52.958   L 
 H-HP-0.119522        -1    50.183    18.679    53.198   L 
 N-N3--0.250358       -1    52.083    17.921    52.712   L 
 H-H-0.294561         -1    52.337    17.79     53.69    L 
 H-H-0.294561         -1    51.764    17.016    52.371   L 
 H-H-0.294561         -1    52.916    18.155    52.196   L 
 C-C-0.725129         -1    46.525    20.941    48.598   L 
 O-O--0.563157        -1    45.479    20.336    48.844   L 
 N-N--0.427579        0     46.848    21.318    47.358   L 
 H-H-0.241716         0     47.713    21.817    47.211   L 
 C-CT--0.020082       0     46.044    20.959    46.181   L 
 H-H1-0.106629        0     45.011    21.273    46.351   L 
 C-CT--0.098364       0     46.577    21.719    44.953   L 
 H-HC-0.065424        0     47.63     21.476    44.804   L 
 H-HC-0.065424        0     46.035    21.38     44.07    L 
 C-C*--0.099797       0     46.432    23.21     45.028   L 
 C-CW--0.174053       0     47.38     24.075    45.456   L 
 H-H4-0.170633        0     48.374    23.799    45.786   L 
 N-NA--0.298433       0     46.871    25.359    45.452   L 
 H-H-0.322375         0     47.353    26.169    45.839   L 
 C-CN-0.141523        0     45.569    25.391    45.013   L 
 C-CA--0.210701       0     44.636    26.428    44.87    L 
 H-HA-0.125512        0     44.915    27.44     45.123   L 
 C-CA--0.133022       0     43.347    26.128    44.399   L 
 H-HA-0.119467        0     42.614    26.914    44.278   L 
 C-CA--0.164054       0     43.019    24.801    44.071   L 
 H-HA-0.119250        0     42.033    24.571    43.69    L 
 C-CA--0.153992       0     43.963    23.768    44.226   L 
 H-HA-0.123084        0     43.692    22.757    43.969   L 
 C-CB-0.089641        0     45.262    24.031    44.712   L 
 C-C-0.584129         0     46.033    19.434    45.948   L 
 O-O--0.494730        0     47.009    18.743    46.249   L 
 N-N--0.558201        -1    44.957    18.904    45.366   L 
 H-H-0.319676         -1    44.181    19.53     45.154   L 
 C-CT-0.007225        -1    44.814    17.48     44.999   L 
 H-H1-0.082375        -1    45.109    16.861    45.847   L 
 C-CT--0.047555       -1    43.337    17.179    44.686   L 
 H-HC--0.014836       -1    43.033    17.765    43.816   L 
 H-HC--0.014836       -1    43.239    16.124    44.428   L 
 C-C-0.745168         -1    42.394    17.476    45.856   L 
 O-O2--0.730385       -1    42.595    16.918    46.96    L 
 O-O2--0.730385       -1    41.443    18.276    45.676   L 
 C-C-0.443199         -1    45.69     17.071    43.793   L 
 O-O--0.501445        -1    45.922    15.884    43.55    L 
 N-N--0.451047        -1    47.71     23.806    37.859   L 
 H-H-0.328831         -1    48.514    24.191    37.362   L 
 C-CT--0.101874       -1    46.75     24.785    38.403   L 
 H-H1-0.174193        -1    45.873    24.278    38.809   L 
 C-CT-0.062238        -1    47.445    25.575    39.545   L 
 H-HC-0.061662        -1    48.313    26.063    39.104   L 
 C-CT--0.129989       -1    46.55     26.682    40.131   L 
 H-HC-0.030227        -1    47.05     27.158    40.975   L 
 H-HC-0.030227        -1    46.351    27.451    39.385   L 
 H-HC-0.030227        -1    45.607    26.26     40.475   L 
 C-CT-0.022230        -1    47.985    24.686    40.695   L 
 H-HC-0.011551        -1    48.703    23.97     40.296   L 
 H-HC-0.011551        -1    48.536    25.318    41.392   L 
 C-CT--0.101251       -1    46.925    23.915    41.495   L 
 H-HC-0.023792        -1    46.332    23.28     40.841   L 
 H-HC-0.023792        -1    47.424    23.286    42.233   L 
 H-HC-0.023792        -1    46.267    24.609    42.018   L 
 C-C-0.569383         -1    46.261    25.712    37.276   L 
 O-O--0.619535        -1    47.019    26.012    36.347   L 
 N-N--0.487560        -1    44.084    29.484    36.229   L 
 H-H-0.263521         -1    44.423    29.382    35.277   L 
 C-CT-0.009614        -1    43.679    30.82     36.679   L 
 H-H1-0.095501        -1    43.034    30.689    37.542   L 
 C-CT--0.051853       -1    44.903    31.616    37.158   L 
 H-HC-0.019145        -1    44.549    32.465    37.744   L 
 H-HC-0.019145        -1    45.483    30.992    37.839   L 
 C-CA-0.112601        -1    45.831    32.146    36.08    L 
 C-CA--0.183461       -1    46.877    31.341    35.587   L 
 H-HA-0.132715        -1    46.981    30.323    35.933   L 
 C-CA--0.181823       -1    47.809    31.873    34.675   L 
 H-HA-0.137303        -1    48.634    31.273    34.32    L 
 C-C-0.206277         -1    47.698    33.216    34.256   L 
 O-OH--0.421233       -1    48.642    33.75     33.437   L 
 H-HO-0.329691        -1    48.548    34.711    33.348   L 
 C-CA--0.181823       -1    46.631    34.015    34.726   L 
 H-HA-0.137303        -1    46.547    35.043    34.407   L 
 C-CA--0.183461       -1    45.7      33.477    35.635   L 
 H-HA-0.132715        -1    44.905    34.1      36.017   L 
 C-C-0.622290         -1    42.848    31.585    35.64    L 
 O-O--0.526607        -1    42.881    31.276    34.447   L 
 N-N--0.451047        -1    40.971    35.829    34.977   L 
 H-H-0.328831         -1    41.072    35.639    33.981   L 
 C-CT--0.101874       -1    40.839    37.233    35.425   L 
 H-H1-0.174193        -1    40.862    37.263    36.514   L 
 C-CT-0.062238        -1    42.017    38.108    34.915   L 
 H-HC-0.061662        -1    41.886    38.269    33.843   L 
 C-CT--0.129989       -1    41.957    39.476    35.628   L 
 H-HC-0.030227        -1    42.759    40.125    35.283   L 
 H-HC-0.030227        -1    41.019    39.983    35.407   L 
 H-HC-0.030227        -1    42.05     39.346    36.707   L 
 C-CT-0.022230        -1    43.401    37.441    35.131   L 
 H-HC-0.011551        -1    43.564    37.276    36.195   L 
 H-HC-0.011551        -1    43.416    36.471    34.634   L 
 C-CT--0.101251       -1    44.592    38.233    34.57    L 
 H-HC-0.023792        -1    45.493    37.621    34.633   L 
 H-HC-0.023792        -1    44.412    38.489    33.526   L 
 H-HC-0.023792        -1    44.756    39.143    35.147   L 
 C-C-0.569383         -1    39.48     37.803    34.993   L 
 O-O--0.619535        -1    39.092    37.657    33.835   L 
 N-N--0.450087        -1    49.081    44.487    34.36    L 
 H-H-0.440048         -1    48.475    45.11     33.83    L 
 C-CT--0.051858       -1    48.49     43.721    35.476   L 
 H-H1--0.026204       -1    49.081    43.916    36.373   L 
 C-CT-0.395217        -1    47.036    44.185    35.743   L 
 H-HC--0.115672       -1    46.516    44.238    34.79    L 
 C-CT--0.090132       -1    46.231    43.236    36.646   L 
 H-HC--0.008985       -1    46.777    43.039    37.567   L 
 H-HC--0.008985       -1    45.265    43.679    36.89    L 
 H-HC--0.008985       -1    46.046    42.297    36.125   L 
 C-CT--0.090132       -1    47.013    45.593    36.363   L 
 H-HC--0.008985       -1    47.49     45.581    37.341   L 
 H-HC--0.008985       -1    47.541    46.297    35.724   L 
 H-HC--0.008985       -1    45.983    45.934    36.472   L 
 C-C-0.447359         -1    48.541    42.209    35.191   L 
 O-O--0.404629        -1    48.955    41.431    36.048   L 
 N-N--0.404773        -1    52.165    41.01     35.609   L 
 H-H-0.294276         -1    51.397    41.63     35.367   L 
 C-CT--0.027733       -1    52.528    40.877    37.021   L 
 H-H1-0.120802        -1    53.609    40.987    37.12    L 
 C-CT--0.229951       -1    51.842    42.002    37.813   L 
 H-HC-0.077428        -1    50.76     41.947    37.699   L 
 H-HC-0.077428        -1    52.07     41.903    38.873   L 
 H-HC-0.077428        -1    52.184    42.975    37.461   L 
 C-C-0.570224         -1    52.157    39.497    37.59    L 
 O-O--0.555129        -1    52.975    38.868    38.266   L 
 N-N--0.371290        0     50.951    38.998    37.292   L 
 H-H-0.234053         0     50.31     39.564    36.748   L 
 C-CT--0.030057       0     50.516    37.678    37.754   L 
 H-H1-0.102448        0     50.678    37.626    38.831   L 
 C-CT--0.098720       0     49.014    37.489    37.487   L 
 H-HC-0.060989        0     48.833    37.575    36.414   L 
 H-HC-0.060989        0     48.735    36.477    37.787   L 
 C-CA-0.021313        0     48.111    38.458    38.235   L 
 C-CA--0.083109       0     48.242    38.624    39.63    L 
 H-HA-0.098466        0     48.98     38.061    40.182   L 
 C-CA--0.156974       0     47.416    39.529    40.318   L 
 H-HA-0.123731        0     47.531    39.662    41.384   L 
 C-CA--0.099824       0     46.44     40.261    39.622   L 
 H-HA-0.114679        0     45.802    40.954    40.153   L 
 C-CA--0.156974       0     46.291    40.084    38.236   L 
 H-HA-0.123731        0     45.532    40.635    37.701   L 
 C-CA--0.083109       0     47.128    39.19     37.543   L 
 H-HA-0.098466        0     47.015    39.075    36.475   L 
 C-C-0.547987         0     51.355    36.546    37.149   L 
 O-O--0.506795        0     51.694    35.605    37.863   L 
 N-N--0.404773        -1    51.777    36.664    35.882   L 
 H-H-0.294276         -1    51.463    37.461    35.341   L 
 C-CT--0.027733       -1    52.702    35.712    35.258   L 
 H-H1-0.120802        -1    52.243    34.721    35.265   L 
 C-CT--0.229951       -1    52.918    36.128    33.796   L 
 H-HC-0.077428        -1    53.576    35.409    33.306   L 
 H-HC-0.077428        -1    51.963    36.144    33.269   L 
 H-HC-0.077428        -1    53.374    37.117    33.743   L 
 C-C-0.570224         -1    54.03     35.591    36.035   L 
 O-O--0.555129        -1    54.484    34.48     36.313   L 
 N-N--0.300879        -1    54.61     36.72     36.469   L 
 H-H-0.233693         -1    54.179    37.602    36.226   L 
 C-CT--0.131381       -1    55.815    36.736    37.315   L 
 H-H1-0.053266        -1    56.611    36.201    36.794   L 
 C-CT-0.036707        -1    56.286    38.179    37.555   L 
 H-HC-0.028012        -1    55.461    38.777    37.936   L 
 H-HC-0.028012        -1    57.071    38.173    38.311   L 
 C-CT-0.012454        -1    56.834    38.822    36.274   L 
 H-HC-0.002964        -1    57.77     38.342    35.993   L 
 H-HC-0.002964        -1    56.121    38.674    35.466   L 
 C-CT-0.126329        -1    57.055    40.329    36.426   L 
 H-H1-0.068148        -1    57.356    40.729    35.458   L 
 H-H1-0.068148        -1    56.11     40.795    36.712   L 
 N-N2--0.464890       -1    58.095    40.66     37.411   L 
 H-H-0.326274         -1    58.689    39.897    37.732   L 
 C-CA-0.565543        -1    58.418    41.887    37.798   L 
 N-N2--0.685774       -1    57.764    42.939    37.353   L 
 H-H-0.391052         -1    57.045    42.821    36.648   L 
 H-H-0.391052         -1    58.062    43.878    37.591   L 
 N-N2--0.685774       -1    59.415    42.07     38.633   L 
 H-H-0.391052         -1    59.979    41.288    38.952   L 
 H-H-0.391052         -1    59.687    43.006    38.918   L 
 C-C-0.730308         -1    55.583    36.024    38.654   L 
 O-O--0.578332        -1    56.375    35.165    39.045   L 
 N-N--0.404773        -1    54.472    36.313    39.337   L 
 H-H-0.294276         -1    53.85     37.024    38.97    L 
 C-CT--0.027733       -1    54.122    35.653    40.598   L 
 H-H1-0.120802        -1    54.942    35.808    41.304   L 
 C-CT--0.229951       -1    52.876    36.338    41.17    L 
 H-HC-0.077428        -1    52.028    36.2      40.499   L 
 H-HC-0.077428        -1    52.638    35.912    42.145   L 
 H-HC-0.077428        -1    53.062    37.406    41.295   L 
 C-C-0.570224         -1    53.966    34.121    40.454   L 
 O-O--0.555129        -1    54.456    33.381    41.307   L 
 N-N--0.371290        -1    53.378    33.63     39.354   L 
 H-H-0.234053         -1    52.944    34.276    38.703   L 
 C-CT--0.030057       -1    53.332    32.195    39.044   L 
 H-H1-0.102448        -1    52.987    31.665    39.933   L 
 C-CT--0.098720       -1    52.336    31.932    37.902   L 
 H-HC-0.060989        -1    52.608    32.547    37.042   L 
 H-HC-0.060989        -1    52.432    30.891    37.592   L 
 C-CA-0.021313        -1    50.876    32.166    38.254   L 
 C-CA--0.083109       -1    50.31     31.541    39.383   L 
 H-HA-0.098466        -1    50.909    30.89     40.004   L 
 C-CA--0.156974       -1    48.961    31.755    39.712   L 
 H-HA-0.123731        -1    48.544    31.289    40.591   L 
 C-CA--0.099824       -1    48.165    32.593    38.913   L 
 H-HA-0.114679        -1    47.13     32.767    39.173   L 
 C-CA--0.156974       -1    48.724    33.215    37.784   L 
 H-HA-0.123731        -1    48.117    33.863    37.169   L 
 C-CA--0.083109       -1    50.071    32.992    37.447   L 
 H-HA-0.098466        -1    50.486    33.467    36.57    L 
 C-C-0.547987         -1    54.711    31.604    38.709   L 
 O-O--0.506795        -1    55.004    30.48     39.119   L 
 N-N--0.387353        -1    55.579    32.339    38.004   L 
 H-H-0.300605         -1    55.259    33.224    37.622   L 
 C-CT-0.037470        -1    56.966    31.926    37.751   L 
 H-H1-0.152255        -1    56.979    30.935    37.293   L 
 C-CT--0.032112       -1    57.641    32.909    36.783   L 
 H-HC-0.030995        -1    57.468    33.928    37.124   L 
 H-HC-0.030995        -1    58.717    32.736    36.794   L 
 C-CT--0.020264       -1    57.153    32.77     35.332   L 
 H-HC-0.030791        -1    57.544    31.849    34.899   L 
 H-HC-0.030791        -1    56.066    32.713    35.312   L 
 C-C-0.667812         -1    57.601    33.955    34.476   L 
 O-O--0.628483        -1    58.645    34.559    34.682   L 
 N-N--0.883393        -1    56.838    34.366    33.494   L 
 H-H-0.408312         -1    57.134    35.207    33.009   L 
 H-H-0.408312         -1    55.99     33.86     33.262   L 
 C-C-0.418577         -1    57.774    31.816    39.054   L 
 O-O--0.565310        -1    58.429    30.797    39.266   L 
 N-N--0.450087        -1    57.703    32.806    39.951   L 
 H-H-0.440048         -1    57.185    33.651    39.702   L 
 C-CT--0.051858       -1    58.414    32.773    41.248   L 
 H-H1--0.026204       -1    59.482    32.709    41.031   L 
 C-CT-0.395217        -1    58.179    34.07     42.062   L 
 H-HC--0.115672       -1    57.109    34.288    42.069   L 
 C-CT--0.090132       -1    58.66     33.98     43.523   L 
 H-HC--0.008985       -1    58.07     33.247    44.075   L 
 H-HC--0.008985       -1    59.712    33.693    43.556   L 
 H-HC--0.008985       -1    58.538    34.945    44.015   L 
 C-CT--0.090132       -1    58.905    35.254    41.396   L 
 H-HC--0.008985       -1    59.984    35.094    41.423   L 
 H-HC--0.008985       -1    58.596    35.361    40.357   L 
 H-HC--0.008985       -1    58.669    36.178    41.923   L 
 C-C-0.447359         -1    58.037    31.526    42.064   L 
 O-O--0.404629        -1    58.922    30.806    42.525   L 
 N-N--0.427579        0     56.739    31.213    42.188   L 
 H-H-0.241716         0     56.038    31.851    41.83    L 
 C-CT--0.020082       0     56.294    30.002    42.887   L 
 H-H1-0.106629        0     56.882    29.914    43.801   L 
 C-CT--0.098364       0     54.823    30.16     43.304   L 
 H-HC-0.065424        0     54.237    30.512    42.453   L 
 H-HC-0.065424        0     54.434    29.18     43.585   L 
 C-C*--0.099797       0     54.606    31.072    44.482   L 
 C-CW--0.174053       0     53.885    32.217    44.487   L 
 H-H4-0.170633        0     53.374    32.624    43.624   L 
 N-NA--0.298433       0     53.919    32.789    45.748   L 
 H-H-0.322375         0     53.461    33.66     45.999   L 
 C-CN-0.141523        0     54.689    32.049    46.615   L 
 C-CA--0.210701       0     55.045    32.223    47.96    L 
 H-HA-0.125512        0     54.677    33.076    48.51    L 
 C-CA--0.133022       0     55.896    31.288    48.57    L 
 H-HA-0.119467        0     56.199    31.42     49.6     L 
 C-CA--0.164054       0     56.361    30.184    47.834   L 
 H-HA-0.119250        0     57.032    29.477    48.298   L 
 C-CA--0.153992       0     55.976    30.005    46.491   L 
 H-HA-0.123084        0     56.343    29.152    45.941   L 
 C-CB-0.089641        0     55.139    30.939    45.839   L 
 C-C-0.584129         0     56.558    28.697    42.106   L 
 O-O--0.494730        0     56.663    27.633    42.72    L 
 N-N--0.541430        -1    56.738    28.742    40.781   L 
 H-H-0.345415         -1    56.72     29.652    40.333   L 
 C-CT-0.118140        -1    57.151    27.564    39.99    L 
 H-H1-0.142177        -1    56.471    26.734    40.19    L 
 C-CT-0.146998        -1    57.108    27.849    38.477   L 
 H-H1-0.040081        -1    57.799    28.655    38.235   L 
 H-H1-0.040081        -1    57.443    26.957    37.946   L 
 O-OH--0.640312       -1    55.807    28.185    38.012   L 
 H-HO-0.446255        -1    55.487    28.955    38.525   L 
 C-C-0.483424         -1    58.568    27.093    40.37    L 
 O-O--0.580829        -1    58.814    25.894    40.484   L 
 N-N--0.450087        -1    60.198    26.665    42.973   L 
 H-H-0.440048         -1    59.325    27.085    42.675   L 
 C-CT--0.051858       -1    60.268    26.004    44.293   L 
 H-H1--0.026204       -1    61.202    25.443    44.333   L 
 C-CT-0.395217        -1    60.305    27.054    45.434   L 
 H-HC--0.115672       -1    60.343    26.528    46.388   L 
 C-CT--0.090132       -1    61.572    27.921    45.356   L 
 H-HC--0.008985       -1    61.61     28.58     46.219   L 
 H-HC--0.008985       -1    62.459    27.285    45.36    L 
 H-HC--0.008985       -1    61.57     28.533    44.454   L 
 C-CT--0.090132       -1    59.059    27.959    45.436   L 
 H-HC--0.008985       -1    58.158    27.355    45.521   L 
 H-HC--0.008985       -1    59.095    28.634    46.29    L 
 H-HC--0.008985       -1    59.009    28.55     44.522   L 
 C-C-0.447359         -1    59.147    24.97     44.524   L 
 O-O--0.404629        -1    58.951    24.51     45.652   L 
 N-N--0.245382        -1    58.412    24.592    43.465   L 
 H-H-0.255339         -1    58.664    24.951    42.55    L 
 C-CT--0.271249       -1    57.315    23.606    43.499   L 
 H-H1-0.163757        -1    57.455    22.948    44.355   L 
 C-CT-0.237868        -1    55.945    24.295    43.644   L 
 H-H1-0.044688        -1    55.17     23.534    43.68    L 
 C-CT--0.176489       -1    55.784    25.143    44.902   L 
 H-HC-0.060019        -1    56.016    24.54     45.778   L 
 H-HC-0.060019        -1    56.449    26.004    44.872   L 
 H-HC-0.060019        -1    54.754    25.494    44.974   L 
 O-OH--0.601931       -1    55.698    25.089    42.516   L 
 H-HO-0.405484        -1    56.076    25.971    42.676   L 
 C-C-0.559878         -1    57.332    22.742    42.228   L 
 O-O--0.552020        -1    57.958    23.135    41.24    L 
 N-N--0.355153        -1    54.413    22.694    40.861   L 
 H-H-0.262417         -1    54.811    23.078    41.708   L 
 C-CT--0.101497       -1    53.173    23.299    40.379   L 
 H-H1-0.136951        -1    52.513    22.5      40.05    L 
 C-CT--0.144399       -1    52.476    24.076    41.516   L 
 H-HC-0.052533        -1    53.126    24.895    41.829   L 
 H-HC-0.052533        -1    51.564    24.523    41.115   L 
 C-CT-0.191982        -1    52.103    23.234    42.757   L 
 H-HC-0.000825        -1    53.011    22.819    43.196   L 
 C-CT--0.123036       -1    51.443    24.132    43.81    L 
 H-HC-0.022376        -1    50.535    24.585    43.408   L 
 H-HC-0.022376        -1    51.188    23.545    44.693   L 
 H-HC-0.022376        -1    52.138    24.917    44.106   L 
 C-CT--0.123036       -1    51.164    22.068    42.413   L 
 H-HC-0.022376        -1    51.683    21.353    41.777   L 
 H-HC-0.022376        -1    50.863    21.553    43.326   L 
 H-HC-0.022376        -1    50.274    22.436    41.901   L 
 C-C-0.573471         -1    53.436    24.196    39.166   L 
 O-O--0.557847        -1    54.392    24.971    39.147   L 
 N-N--0.371290        -1    51.245    26.442    35.747   L 
 H-H-0.234053         -1    52.121    26.774    35.36    L 
 C-CT--0.030057       -1    50.119    27.38     35.72    L 
 H-H1-0.102448        -1    49.237    26.907    36.146   L 
 C-CT--0.098720       -1    50.481    28.606    36.581   L 
 H-HC-0.060989        -1    51.312    29.135    36.109   L 
 H-HC-0.060989        -1    49.633    29.294    36.587   L 
 C-CA-0.021313        -1    50.862    28.3      38.02    L 
 C-CA--0.083109       -1    52.207    28.06     38.365   L 
 H-HA-0.098466        -1    52.977    28.102    37.609   L 
 C-CA--0.156974       -1    52.554    27.754    39.693   L 
 H-HA-0.123731        -1    53.587    27.558    39.949   L 
 C-CA--0.099824       -1    51.561    27.698    40.685   L 
 H-HA-0.114679        -1    51.83     27.464    41.706   L 
 C-CA--0.156974       -1    50.219    27.954    40.348   L 
 H-HA-0.123731        -1    49.455    27.921    41.11    L 
 C-CA--0.083109       -1    49.871    28.257    39.019   L 
 H-HA-0.098466        -1    48.841    28.461    38.766   L 
 C-C-0.547987         -1    49.793    27.833    34.293   L 
 O-O--0.506795        -1    50.696    28.089    33.499   L 
 N-N--0.558201        -1    40.78     27.317    39.357   L 
 H-H-0.319676         -1    41.294    27.013    38.537   L 
 C-CT-0.007225        -1    41.377    27.095    40.679   L 
 H-H1-0.082375        -1    40.666    26.548    41.301   L 
 C-CT--0.047555       -1    42.656    26.25     40.589   L 
 H-HC--0.014836       -1    43.416    26.813    40.052   L 
 H-HC--0.014836       -1    43.033    26.079    41.595   L 
 C-C-0.745168         -1    42.457    24.898    39.904   L 
 O-O2--0.730385       -1    43.092    24.69     38.844   L 
 O-O2--0.730385       -1    41.674    24.054    40.401   L 
 C-C-0.443199         -1    41.639    28.458    41.339   L 
 O-O--0.501445        -1    41.081    28.728    42.399   L 
 N-N--0.451047        -1    42.28     29.382    40.615   L 
 H-H-0.328831         -1    42.673    29.08     39.723   L 
 C-CT--0.101874       -1    42.559    30.759    41.05    L 
 H-H1-0.174193        -1    42.203    30.893    42.073   L 
 C-CT-0.062238        -1    44.092    31.002    41.077   L 
 H-HC-0.061662        -1    44.479    30.855    40.068   L 
 C-CT--0.129989       -1    44.409    32.451    41.504   L 
 H-HC-0.030227        -1    43.958    33.161    40.815   L 
 H-HC-0.030227        -1    44.023    32.645    42.503   L 
 H-HC-0.030227        -1    45.483    32.631    41.491   L 
 C-CT-0.022230        -1    44.788    29.978    42.014   L 
 H-HC-0.011551        -1    44.412    30.099    43.028   L 
 H-HC-0.011551        -1    44.544    28.965    41.692   L 
 C-CT--0.101251       -1    46.318    30.059    42.043   L 
 H-HC-0.023792        -1    46.708    29.24     42.648   L 
 H-HC-0.023792        -1    46.706    29.965    41.028   L 
 H-HC-0.023792        -1    46.647    30.998    42.485   L 
 C-C-0.569383         -1    41.78     31.762    40.175   L 
 O-O--0.619535        -1    42.252    32.207    39.128   L 
 N-N--0.394918        -1    40.556    32.114    40.579   L 
 H-H-0.280537         -1    40.187    31.696    41.426   L 
 C-CT--0.087681       -1    39.855    33.283    40.015   L 
 H-H1-0.123080        -1    39.95     33.271    38.928   L 
 C-CT-0.019227        -1    38.363    33.255    40.383   L 
 H-HC-0.048840        -1    38.26     33.211    41.465   L 
 H-HC-0.048840        -1    37.895    34.183    40.054   L 
 C-CT--0.208167       -1    37.609    32.073    39.758   L 
 H-H1-0.124228        -1    38.102    31.145    40.052   L 
 H-H1-0.124228        -1    36.606    32.052    40.185   L 
 S-S--0.211958        -1    37.45     32.093    37.951   L 
 C-CT--0.284698       -1    36.35     33.514    37.739   L 
 H-H1-0.128394        -1    36.862    34.431    38.028   L 
 H-H1-0.128394        -1    36.043    33.595    36.697   L 
 H-H1-0.128394        -1    35.459    33.392    38.359   L 
 C-C-0.599684         -1    40.491    34.58     40.537   L 
 O-O--0.566424        -1    40.863    34.656    41.707   L 
 N-N--0.451047        -1    40.579    35.619    39.703   L 
 H-H-0.328831         -1    40.321    35.463    38.732   L 
 C-CT--0.101874       -1    41.252    36.892    40.02    L 
 H-H1-0.174193        -1    41.455    36.924    41.088   L 
 C-CT-0.062238        -1    42.616    36.992    39.287   L 
 H-HC-0.061662        -1    42.427    36.987    38.215   L 
 C-CT--0.129989       -1    43.314    38.319    39.644   L 
 H-HC-0.030227        -1    44.237    38.419    39.077   L 
 H-HC-0.030227        -1    42.688    39.171    39.382   L 
 H-HC-0.030227        -1    43.539    38.351    40.711   L 
 C-CT-0.022230        -1    43.529    35.784    39.616   L 
 H-HC-0.011551        -1    43.672    35.725    40.696   L 
 H-HC-0.011551        -1    43.034    34.87     39.291   L 
 C-CT--0.101251       -1    44.908    35.796    38.94    L 
 H-HC-0.023792        -1    45.531    36.588    39.354   L 
 H-HC-0.023792        -1    45.403    34.841    39.119   L 
 H-HC-0.023792        -1    44.795    35.939    37.865   L 
 C-C-0.569383         -1    40.332    38.076    39.691   L 
 O-O--0.619535        -1    39.815    38.181    38.576   L 
 N-N--0.430106        -1    40.131    38.969    40.666   L 
 H-H-0.254543         -1    40.61     38.824    41.547   L 
 C-CT-0.044609        -1    39.187    40.091    40.579   L 
 H-H1-0.059601        -1    39.146    40.447    39.548   L 
 C-CT--0.093650       -1    37.792    39.56     40.977   L 
 H-HC-0.043321        -1    37.532    38.727    40.327   L 
 H-HC-0.043321        -1    37.831    39.18     41.997   L 
 C-C-0.583519         -1    36.668    40.591    40.903   L 
 O-O--0.526813        -1    36.037    40.916    41.901   L 
 N-N--0.781735        -1    36.34     41.091    39.727   L 
 H-H-0.355079         -1    35.58     41.764    39.695   L 
 H-H-0.355079         -1    36.788    40.797    38.875   L 
 C-C-0.617141         -1    39.62     41.264    41.483   L 
 O-O--0.523909        -1    39.644    41.136    42.708   L 
 N-N--0.371290        -1    39.941    42.423    40.895   L 
 H-H-0.234053         -1    39.959    42.469    39.886   L 
 C-CT--0.030057       -1    39.927    43.691    41.636   L 
 H-H1-0.102448        -1    40.542    43.597    42.532   L 
 C-CT--0.098720       -1    40.501    44.819    40.77    L 
 H-HC-0.060989        -1    40.115    44.723    39.758   L 
 H-HC-0.060989        -1    40.141    45.773    41.156   L 
 C-CA-0.021313        -1    42.018    44.863    40.74    L 
 C-CA--0.083109       -1    42.743    43.979    39.918   L 
 H-HA-0.098466        -1    42.225    43.257    39.305   L 
 C-CA--0.156974       -1    44.148    44.022    39.897   L 
 H-HA-0.123731        -1    44.701    43.339    39.27    L 
 C-CA--0.099824       -1    44.833    44.952    40.698   L 
 H-HA-0.114679        -1    45.911    44.989    40.684   L 
 C-CA--0.156974       -1    44.115    45.83     41.526   L 
 H-HA-0.123731        -1    44.643    46.538    42.149   L 
 C-CA--0.083109       -1    42.711    45.783    41.551   L 
 H-HA-0.098466        -1    42.173    46.455    42.202   L 
 C-C-0.547987         -1    38.486    43.996    42.073   L 
 O-O--0.506795        -1    37.553    43.812    41.291   L 
 N-N--0.374282        -1    38.303    44.412    43.329   L 
 H-H-0.253981         -1    39.128    44.556    43.903   L 
 C-CT--0.128844       -1    37.013    44.313    44.017   L 
 H-HC-0.088859        -1    36.194    44.367    43.3     L 
 H-HC-0.088859        -1    36.971    43.332    44.49    L 
 C-C-0.580584         -1    36.781    45.361    45.097   L 
 O-O--0.509157        -1    36.599    44.993    46.255   L 
 N-N--0.506799        -1    32.851    42.751    46.948   L 
 H-H-0.351021         -1    33.142    42.269    47.796   L 
 C-CT-0.119066        -1    33.039    42.049    45.674   L 
 H-H1-0.137761        -1    32.42     42.534    44.917   L 
 C-CT--0.122638       -1    34.502    42.227    45.24    L 
 H-HC-0.086329        -1    34.665    41.725    44.285   L 
 H-HC-0.086329        -1    34.671    43.291    45.084   L 
 C-CC--0.001547       -1    35.504    41.72     46.245   L 
 N-NA--0.205785       -1    35.98     42.399    47.343   L 
 H-H-0.318273         -1    35.816    43.379    47.56    L 
 C-CR-0.147273        -1    36.8      41.58     48.014   L 
 H-H5-0.122182        -1    37.333    41.858    48.914   L 
 N-NB--0.601482       -1    36.875    40.378    47.408   L 
 C-CV-0.043744        -1    36.085    40.484    46.255   L 
 H-H4-0.110157        -1    35.926    39.711    45.513   L 
 C-C-0.515947         -1    32.565    40.576    45.677   L 
 O-O--0.599831        -1    32.738    39.884    44.665   L 
 N-N--0.558201        -1    32.354    37.465    48.118   L 
 H-H-0.319676         -1    32.496    38.299    48.673   L 
 C-CT-0.007225        -1    32.916    36.182    48.599   L 
 H-H1-0.082375        -1    32.197    35.401    48.346   L 
 C-CT--0.047555       -1    34.215    35.832    47.843   L 
 H-HC--0.014836       -1    34.607    34.881    48.204   L 
 H-HC--0.014836       -1    33.976    35.688    46.79    L 
 C-C-0.745168         -1    35.298    36.9      47.953   L 
 O-O2--0.730385       -1    35.253    37.957    47.302   L 
 O-O2--0.730385       -1    36.314    36.805    48.67    L 
 C-C-0.443199         -1    33.088    36.06     50.133   L 
 O-O--0.501445        -1    33.72     35.108    50.596   L 
 N-N--0.371290        -1    36.24     44.622    51.815   L 
 H-H-0.234053         -1    35.929    44.696    50.854   L 
 C-CT--0.030057       -1    37.495    45.286    52.176   L 
 H-H1-0.102448        -1    38.081    44.604    52.788   L 
 C-CT--0.098720       -1    38.32     45.665    50.931   L 
 H-HC-0.060989        -1    37.708    46.259    50.256   L 
 H-HC-0.060989        -1    39.135    46.315    51.254   L 
 C-CA-0.021313        -1    38.962    44.528    50.162   L 
 C-CA--0.083109       -1    39.845    43.646    50.811   L 
 H-HA-0.098466        -1    40.044    43.758    51.866   L 
 C-CA--0.156974       -1    40.489    42.631    50.086   L 
 H-HA-0.123731        -1    41.161    41.958    50.595   L 
 C-CA--0.099824       -1    40.263    42.496    48.707   L 
 H-HA-0.114679        -1    40.753    41.709    48.154   L 
 C-CA--0.156974       -1    39.404    43.393    48.048   L 
 H-HA-0.123731        -1    39.24     43.306    46.983   L 
 C-CA--0.083109       -1    38.755    44.406    48.776   L 
 H-HA-0.098466        -1    38.113    45.108    48.265   L 
 C-C-0.547987         -1    37.224    46.556    52.993   L 
 O-O--0.506795        -1    36.28     47.302    52.721   L 
 N-N--0.558201        -1    38.105    46.837    53.953   L 
 H-H-0.319676         -1    38.851    46.165    54.098   L 
 C-CT-0.007225        -1    38.261    48.179    54.526   L 
 H-H1-0.082375        -1    37.297    48.512    54.912   L 
 C-CT--0.047555       -1    39.251    48.134    55.704   L 
 H-HC--0.014836       -1    39.4      49.146    56.083   L 
 H-HC--0.014836       -1    38.801    47.545    56.505   L 
 C-C-0.745168         -1    40.611    47.532    55.338   L 
 O-O2--0.730385       -1    40.945    46.459    55.89    L 
 O-O2--0.730385       -1    41.322    48.104    54.474   L 
 C-C-0.443199         -1    38.725    49.187    53.458   L 
 O-O--0.501445        -1    39.455    48.822    52.531   L 
 N-N--0.558201        -1    44.145    52.352    53.034   L 
 H-H-0.319676         -1    44.326    52.021    52.084   L 
 C-CT-0.007225        -1    44.981    51.74     54.078   L 
 H-H1-0.082375        -1    45.889    51.385    53.586   L 
 C-CT--0.047555       -1    45.442    52.78     55.126   L 
 H-HC--0.014836       -1    44.605    53.054    55.768   L 
 H-HC--0.014836       -1    46.204    52.325    55.76    L 
 C-C-0.745168         -1    46.045    54.041    54.503   L 
 O-O2--0.730385       -1    46.929    53.919    53.627   L 
 O-O2--0.730385       -1    45.673    55.166    54.913   L 
 C-C-0.443199         -1    44.314    50.478    54.674   L 
 O-O--0.501445        -1    43.483    49.842    54.016   L 
 N-N--0.374282        -1    44.701    50.073    55.89    L 
 H-H-0.253981         -1    45.4      50.617    56.375   L 
 C-CT--0.128844       -1    44.203    48.858    56.547   L 
 H-HC-0.088859        -1    44.488    48.853    57.599   L 
 H-HC-0.088859        -1    43.116    48.818    56.471   L 
 C-C-0.580584         -1    44.787    47.615    55.883   L 
 O-O--0.509157        -1    45.985    47.358    56.01    L 
 N-N--0.355153        0     43.95     46.876    55.149   L 
 H-H-0.262417         0     42.972    47.151    55.125   L 
 C-CT--0.101497       0     44.347    45.749    54.299   L 
 H-H1-0.136951        0     45.421    45.582    54.404   L 
 C-CT--0.144399       0     43.606    44.469    54.74    L 
 H-HC-0.052533        0     42.557    44.589    54.476   L 
 H-HC-0.052533        0     43.993    43.628    54.162   L 
 C-CT-0.191982        0     43.685    44.112    56.241   L 
 H-HC-0.000825        0     43.27     44.931    56.83    L 
 C-CT--0.123036       0     42.834    42.863    56.512   L 
 H-HC-0.022376        0     43.215    42.015    55.941   L 
 H-HC-0.022376        0     42.862    42.62     57.575   L 
 H-HC-0.022376        0     41.799    43.051    56.228   L 
 C-CT--0.123036       0     45.124    43.855    56.711   L 
 H-HC-0.022376        0     45.556    43.029    56.151   L 
 H-HC-0.022376        0     45.738    44.743    56.567   L 
 H-HC-0.022376        0     45.126    43.605    57.772   L 
 C-C-0.573471         0     44.074    46.07     52.819   L 
 O-O--0.557847        0     43.293    46.978    52.498   L 
 N-N--0.355153        -1    44.725    45.322    51.92    L 
 H-H-0.262417         -1    45.377    44.641    52.294   L 
 C-CT--0.101497       -1    44.83     45.632    50.485   L 
 H-H1-0.136951        -1    44.183    46.477    50.245   L 
 C-CT--0.144399       -1    46.287    46.024    50.146   L 
 H-HC-0.052533        -1    46.869    45.102    50.087   L 
 H-HC-0.052533        -1    46.286    46.467    49.148   L 
 C-CT-0.191982        -1    47.042    46.98     51.094   L 
 H-HC-0.000825        -1    47.112    46.527    52.083   L 
 C-CT--0.123036       -1    48.466    47.166    50.551   L 
 H-HC-0.022376        -1    49.052    47.764    51.249   L 
 H-HC-0.022376        -1    48.956    46.206    50.412   L 
 H-HC-0.022376        -1    48.426    47.663    49.584   L 
 C-CT--0.123036       -1    46.387    48.36     51.232   L 
 H-HC-0.022376        -1    46.396    48.87     50.27    L 
 H-HC-0.022376        -1    45.362    48.266    51.58    L 
 H-HC-0.022376        -1    46.942    48.96     51.953   L 
 C-C-0.573471         -1    44.415    44.477    49.551   L 
 O-O--0.557847        -1    44.24     44.703    48.357   L 
 N-N--0.404773        0     44.301    43.241    50.046   L 
 H-H-0.294276         0     44.402    43.098    51.038   L 
 C-CT--0.027733       0     44.055    42.049    49.227   L 
 H-H1-0.120802        0     43.289    42.279    48.487   L 
 C-CT--0.229951       0     45.368    41.685    48.51    L 
 H-HC-0.077428        0     46.125    41.391    49.239   L 
 H-HC-0.077428        0     45.195    40.861    47.82    L 
 H-HC-0.077428        0     45.736    42.535    47.935   L 
 C-C-0.570224         0     43.565    40.86     50.072   L 
 O-O--0.555129        0     43.682    40.897    51.298   L 
 N-N--0.506799        0     43.059    39.801    49.43    L 
 H-H-0.351021         0     42.976    39.852    48.419   L 
 C-CT-0.119066        0     42.939    38.479    50.059   L 
 H-H1-0.137761        0     43.83     38.339    50.677   L 
 C-CT--0.122638       0     41.732    38.41     51.021   L 
 H-HC-0.086329        0     41.656    37.389    51.395   L 
 H-HC-0.086329        0     41.969    39.026    51.889   L 
 C-CC--0.001547       0     40.362    38.833    50.522   L 
 N-NA--0.205785       0     39.548    39.739    51.157   L 
 H-H-0.318273         0     39.781    40.273    51.991   L 
 C-CR-0.147273        0     38.371    39.77     50.52    L 
 H-H5-0.122182        0     37.545    40.404    50.822   L 
 N-NB--0.601482       0     38.348    38.9      49.488   L 
 C-CV-0.043744        0     39.619    38.3      49.496   L 
 H-H4-0.110157        0     39.936    37.51     48.836   L 
 C-C-0.515947         0     42.916    37.288    49.073   L 
 O-O--0.599831        0     42.207    37.286    48.06    L 
 N-N--0.404773        0     43.628    36.226    49.451   L 
 H-H-0.294276         0     44.355    36.385    50.145   L 
 C-CT--0.027733       0     43.515    34.861    48.943   L 
 H-H1-0.120802        0     42.575    34.759    48.406   L 
 C-CT--0.229951       0     44.676    34.599    47.979   L 
 H-HC-0.077428        0     44.563    33.623    47.506   L 
 H-HC-0.077428        0     44.69     35.364    47.205   L 
 H-HC-0.077428        0     45.617    34.627    48.526   L 
 C-C-0.570224         0     43.495    33.845    50.099   L 
 O-O--0.555129        0     43.842    34.175    51.237   L 
 N-N--0.371290        0     43.082    32.607    49.808   L 
 H-H-0.234053         0     42.887    32.388    48.842   L 
 C-CT--0.030057       0     42.705    31.608    50.817   L 
 H-H1-0.102448        0     43.147    31.877    51.778   L 
 C-CT--0.098720       0     41.173    31.636    50.978   L 
 H-HC-0.060989        0     40.712    31.326    50.038   L 
 H-HC-0.060989        0     40.876    30.915    51.74    L 
 C-CA-0.021313        0     40.628    32.994    51.383   L 
 C-CA--0.083109       0     39.909    33.775    50.458   L 
 H-HA-0.098466        0     39.718    33.397    49.463   L 
 C-CA--0.156974       0     39.452    35.054    50.82    L 
 H-HA-0.123731        0     38.903    35.652    50.106   L 
 C-CA--0.099824       0     39.711    35.56     52.105   L 
 H-HA-0.114679        0     39.366    36.548    52.379   L 
 C-CA--0.156974       0     40.421    34.779    53.033   L 
 H-HA-0.123731        0     40.621    35.164    54.023   L 
 C-CA--0.083109       0     40.878    33.498    52.674   L 
 H-HA-0.098466        0     41.435    32.908    53.388   L 
 C-C-0.547987         0     43.215    30.199    50.477   L 
 O-O--0.506795        0     43.741    29.96     49.39    L 
 N-N--0.404773        0     43.062    29.265    51.42    L 
 H-H-0.294276         0     42.614    29.542    52.29    L 
 C-CT--0.027733       0     43.586    27.9      51.338   L 
 H-H1-0.120802        0     44.672    27.981    51.349   L 
 C-CT--0.229951       0     43.147    27.152    52.602   L 
 H-HC-0.077428        0     42.059    27.077    52.629   L 
 H-HC-0.077428        0     43.574    26.148    52.606   L 
 H-HC-0.077428        0     43.488    27.678    53.492   L 
 C-C-0.570224         0     43.146    27.123    50.07    L 
 O-O--0.555129        0     42.011    27.324    49.614   L 
 N-N--0.088116        0     43.996    26.209    49.547   L 
 C-CT--0.011906       0     45.389    26.037    49.948   L 
 H-H1-0.043951        0     45.436    25.636    50.96    L 
 H-H1-0.043950        0     45.927    26.985    49.895   L 
 C-CT-0.013059        0     46.02     25.047    48.972   L 
 H-HC-0.019574        0     46.744    24.399    49.466   L 
 H-HC-0.019574        0     46.493    25.594    48.16    L 
 C-CT--0.003351       0     44.828    24.264    48.439   L 
 H-HC-0.019352        0     44.609    23.438    49.114   L 
 H-HC-0.019352        0     45.01     23.878    47.44    L 
 C-CT--0.034577       0     43.684    25.284    48.456   L 
 H-H1-0.059977        0     43.708    25.851    47.525   L 
 C-C-0.333720         0     42.333    24.568    48.565   L 
 O-O--0.434559        0     41.756    24.432    49.646   L 
 N-N--0.374282        -1    41.864    24.071    47.416   L 
 H-H-0.253981         -1    42.402    24.248    46.576   L 
 C-CT--0.128844       -1    40.551    23.446    47.227   L 
 H-HC-0.088859        -1    40.692    22.412    46.914   L 
 H-HC-0.088859        -1    39.976    23.455    48.152   L 
 C-C-0.580584         -1    39.737    24.143    46.133   L 
 O-O--0.509157        -1    40.191    25.131    45.554   L 
 N-N--0.245382        -1    38.544    23.631    45.815   L 
 H-H-0.255339         -1    38.214    22.832    46.348   L 
 C-CT--0.271249       -1    37.641    24.22     44.803   L 
 H-H1-0.163757        -1    38.241    24.556    43.957   L 
 C-CT-0.237868        -1    36.647    23.184    44.258   L 
 H-H1-0.044688        -1    36.023    23.661    43.5     L 
 C-CT--0.176489       -1    37.352    22.004    43.588   L 
 H-HC-0.060019        -1    38.       21.491    44.297   L 
 H-HC-0.060019        -1    36.61     21.301    43.211   L 
 H-HC-0.060019        -1    37.952    22.364    42.752   L 
 O-OH--0.601931       -1    35.811    22.705    45.285   L 
 H-HO-0.405484        -1    34.936    23.104    45.119   L 
 C-C-0.559878         -1    36.922    25.46     45.342   L 
 O-O--0.552020        -1    37.006    25.778    46.532   L 
 N-N--0.374282        -1    36.217    26.173    44.455   L 
 H-H-0.253981         -1    36.236    25.889    43.486   L 
 C-CT--0.128844       -1    35.406    27.34     44.809   L 
 H-HC-0.088859        -1    34.766    27.622    43.973   L 
 H-HC-0.088859        -1    34.783    27.073    45.661   L 
 C-C-0.580584         -1    36.266    28.545    45.187   L 
 O-O--0.509157        -1    37.222    28.859    44.469   L 
 N-N--0.450087        -1    35.918    29.213    46.29    L 
 H-H-0.440048         -1    35.043    28.916    46.734   L 
 C-CT--0.051858       -1    36.647    30.367    46.868   L 
 H-H1--0.026204       -1    36.673    31.132    46.094   L 
 C-CT-0.395217        -1    35.927    30.984    48.094   L 
 H-HC--0.115672       -1    36.557    31.784    48.478   L 
 C-CT--0.090132       -1    34.591    31.642    47.712   L 
 H-HC--0.008985       -1    33.896    30.908    47.317   L 
 H-HC--0.008985       -1    34.146    32.114    48.589   L 
 H-HC--0.008985       -1    34.758    32.409    46.957   L 
 C-CT--0.090132       -1    35.731    29.979    49.244   L 
 H-HC--0.008985       -1    35.25     30.473    50.088   L 
 H-HC--0.008985       -1    35.11     29.142    48.928   L 
 H-HC--0.008985       -1    36.696    29.597    49.577   L 
 C-C-0.447359         -1    38.11     30.091    47.269   L 
 O-O--0.404629        -1    38.863    31.041    47.479   L 
 N-N--0.374282        -1    38.541    28.824    47.38    L 
 H-H-0.253981         -1    37.9      28.067    47.176   L 
 C-CT--0.128844       -1    39.929    28.491    47.733   L 
 H-HC-0.088859        -1    40.198    28.994    48.662   L 
 H-HC-0.088859        -1    40.033    27.414    47.864   L 
 C-C-0.580584         -1    40.909    28.935    46.648   L 
 O-O--0.509157        -1    40.577    28.857    45.468   L 
 N-N--0.374282        0     42.104    29.409    47.002   L 
 H-H-0.253981         0     42.341    29.427    47.987   L 
 C-CT--0.128844       0     43.144    29.857    46.056   L 
 H-HC-0.088859        0     44.066    30.021    46.611   L 
 H-HC-0.088859        0     43.302    29.072    45.319   L 
 C-C-0.580584         0     42.845    31.139    45.261   L 
 O-O--0.509157        0     43.781    31.855    44.912   L 
 N-N--0.558201        0     41.573    31.439    44.974   L 
 H-H-0.319676         0     40.876    30.765    45.258   L 
 C-CT-0.007225        0     41.108    32.678    44.338   L 
 H-H1-0.082375        0     41.423    32.683    43.295   L 
 C-CT--0.047555       0     39.573    32.774    44.399   L 
 H-HC--0.014836       0     39.273    32.773    45.447   L 
 H-HC--0.014836       0     39.288    33.747    43.993   L 
 C-C-0.745168         0     38.734    31.719    43.661   L 
 O-O2--0.730385       0     37.497    31.84     43.766   L 
 O-O2--0.730385       0     39.231    30.811    42.943   L 
 C-C-0.443199         0     41.714    33.914    45.033   L 
 O-O--0.501445        0     41.941    33.905    46.242   L 
 N-N--0.541430        0     41.958    34.995    44.296   L 
 H-H-0.345415         0     41.653    34.997    43.324   L 
 C-CT-0.118140        0     42.773    36.132    44.754   L 
 H-H1-0.142177        0     42.877    36.113    45.839   L 
 C-CT-0.146998        0     44.178    36.01     44.147   L 
 H-H1-0.040081        0     44.096    35.968    43.06    L 
 H-H1-0.040081        0     44.759    36.894    44.413   L 
 O-OH--0.640312       0     44.869    34.858    44.608   L 
 H-HO-0.446255        0     44.279    34.089    44.603   L 
 C-C-0.483424         0     42.159    37.487    44.368   L 
 O-O--0.580829        0     41.946    37.774    43.187   L 
 N-N--0.528120        0     41.898    38.346    45.36    L 
 H-H-0.281695         0     42.099    38.059    46.314   L 
 C-CT-0.031249        0     41.214    39.635    45.184   L 
 H-H1-0.085175        0     41.055    39.808    44.123   L 
 C-CT--0.152267       0     39.843    39.588    45.881   L 
 H-HC-0.054608        0     40.001    39.548    46.959   L 
 H-HC-0.054608        0     39.301    40.508    45.658   L 
 C-CC-0.278406        0     38.962    38.431    45.497   L 
 N-NB--0.423316       0     38.113    37.75     46.372   L 
 C-CR-0.025960        0     37.567    36.772    45.63    L 
 H-H5-0.126832        0     36.865    36.043    45.999   L 
 N-NA--0.097984       0     38.003    36.813    44.363   L 
 H-H-0.266865         0     37.753    36.16     43.633   L 
 C-CW--0.297563       0     38.877    37.865    44.258   L 
 H-H4-0.160413        0     39.433    38.163    43.384   L 
 C-C-0.662405         0     42.033    40.818    45.722   L 
 O-O--0.528966        0     42.818    40.655    46.658   L 
 N-N--0.371290        0     41.799    42.016    45.169   L 
 H-H-0.234053         0     41.088    42.073    44.454   L 
 C-CT--0.030057       0     42.593    43.225    45.43    L 
 H-H1-0.102448        0     43.17     43.092    46.346   L 
 C-CT--0.098720       0     43.59     43.428    44.275   L 
 H-HC-0.060989        0     43.04     43.524    43.339   L 
 H-HC-0.060989        0     44.125    44.367    44.435   L 
 C-CA-0.021313        0     44.61     42.31     44.14    L 
 C-CA--0.083109       0     44.343    41.197    43.318   L 
 H-HA-0.098466        0     43.424    41.148    42.752   L 
 C-CA--0.156974       0     45.257    40.13     43.254   L 
 H-HA-0.123731        0     45.038    39.27     42.637   L 
 C-CA--0.099824       0     46.449    40.178    43.998   L 
 H-HA-0.114679        0     47.148    39.354    43.953   L 
 C-CA--0.156974       0     46.73     41.297    44.802   L 
 H-HA-0.123731        0     47.646    41.338    45.373   L 
 C-CA--0.083109       0     45.81     42.36     44.875   L 
 H-HA-0.098466        0     46.022    43.211    45.506   L 
 C-C-0.547987         0     41.7      44.461    45.628   L 
 O-O--0.506795        0     40.692    44.635    44.94    L 
 N-N--0.558201        -1    42.074    45.303    46.591   L 
 H-H-0.319676         -1    42.924    45.088    47.105   L 
 C-CT-0.007225        -1    41.305    46.448    47.083   L 
 H-H1-0.082375        -1    40.247    46.184    47.07    L 
 C-CT--0.047555       -1    41.692    46.698    48.549   L 
 H-HC--0.014836       -1    41.615    45.757    49.096   L 
 H-HC--0.014836       -1    42.733    47.022    48.589   L 
 C-C-0.745168         -1    40.823    47.729    49.271   L 
 O-O2--0.730385       -1    39.775    48.144    48.727   L 
 O-O2--0.730385       -1    41.217    48.079    50.415   L 
 C-C-0.443199         -1    41.488    47.695    46.201   L 
 O-O--0.501445        -1    42.376    48.522    46.396   L 
 N-N--0.558201        -1    40.634    47.823    45.192   L 
 H-H-0.319676         -1    39.991    47.059    45.049   L 
 C-CT-0.007225        -1    40.544    48.968    44.275   L 
 H-H1-0.082375        -1    41.548    49.192    43.913   L 
 C-CT--0.047555       -1    39.729    48.474    43.063   L 
 H-HC--0.014836       -1    40.298    47.684    42.575   L 
 H-HC--0.014836       -1    38.817    48.008    43.428   L 
 C-C-0.745168         -1    39.372    49.512    41.995   L 
 O-O2--0.730385       -1    40.286    50.121    41.393   L 
 O-O2--0.730385       -1    38.155    49.638    41.716   L 
 C-C-0.443199         -1    40.041    50.282    44.942   L 
 O-O--0.501445        -1    39.801    51.263    44.244   L 
 N-N--0.423392        -1    42.314    51.5      47.05    L 
 H-H-0.306811         -1    42.138    50.573    46.677   L 
 C-CT-0.031633        -1    43.713    51.884    47.275   L 
 H-H1-0.065100        -1    43.753    52.588    48.101   L 
 C-CT-0.074772        -1    44.524    50.634    47.69    L 
 H-HC--0.003535       -1    44.583    49.962    46.834   L 
 H-HC--0.003535       -1    45.544    50.927    47.94    L 
 C-CT--0.033909       -1    43.948    49.844    48.881   L 
 H-HC--0.004135       -1    42.918    49.565    48.673   L 
 H-HC--0.004135       -1    44.514    48.918    48.98    L 
 C-C-0.765188         -1    43.979    50.579    50.221   L 
 O-O2--0.824035       -1    44.757    51.545    50.398   L 
 O-O2--0.824035       -1    43.214    50.174    51.132   L 
 C-C-0.469735         -1    44.313    52.598    46.036   L 
 O-O--0.592528        -1    43.588    53.152    45.205   L 
 N-N--0.427579        -1    47.369    51.624    43.059   L 
 H-H-0.241716         -1    46.681    52.043    42.445   L 
 C-CT--0.020082       -1    48.103    50.459    42.552   L 
 H-H1-0.106629        -1    48.633    49.976    43.375   L 
 C-CT--0.098364       -1    47.089    49.444    42.011   L 
 H-HC-0.065424        -1    46.45     49.932    41.273   L 
 H-HC-0.065424        -1    47.627    48.64     41.507   L 
 C-C*--0.099797       -1    46.24     48.832    43.082   L 
 C-CW--0.174053       -1    44.959    49.162    43.367   L 
 H-H4-0.170633        -1    44.375    49.906    42.835   L 
 N-NA--0.298433       -1    44.526    48.432    44.458   L 
 H-H-0.322375         -1    43.615    48.548    44.898   L 
 C-CN-0.141523        -1    45.512    47.596    44.933   L 
 C-CA--0.210701       -1    45.566    46.693    46.003   L 
 H-HA-0.125512        -1    44.703    46.561    46.639   L 
 C-CA--0.133022       -1    46.75     45.973    46.235   L 
 H-HA-0.119467        -1    46.799    45.267    47.052   L 
 C-CA--0.164054       -1    47.868    46.179    45.406   L 
 H-HA-0.119250        -1    48.78     45.631    45.59    L 
 C-CA--0.153992       -1    47.807    47.1      44.342   L 
 H-HA-0.123084        -1    48.677    47.257    43.722   L 
 C-CB-0.089641        -1    46.625    47.827    44.072   L 
 C-C-0.584129         -1    49.146    50.867    41.507   L 
 O-O--0.494730        -1    48.834    51.554    40.532   L 
 N-N--0.487560        -1    51.069    50.856    46.006   L 
 H-H-0.263521         -1    50.269    50.875    45.382   L 
 C-CT-0.009614        -1    51.647    49.551    46.326   L 
 H-H1-0.095501        -1    52.55     49.69     46.921   L 
 C-CT--0.051853       -1    50.648    48.757    47.177   L 
 H-HC-0.019145        -1    49.776    48.512    46.566   L 
 H-HC-0.019145        -1    51.119    47.82     47.47    L 
 C-CA-0.112601        -1    50.186    49.473    48.433   L 
 C-CA--0.183461       -1    48.933    50.118    48.463   L 
 H-HA-0.132715        -1    48.301    50.108    47.584   L 
 C-CA--0.181823       -1    48.492    50.754    49.639   L 
 H-HA-0.137303        -1    47.519    51.222    49.667   L 
 C-C-0.206277         -1    49.313    50.767    50.789   L 
 O-OH--0.421233       -1    48.891    51.388    51.926   L 
 H-HO-0.329691        -1    49.521    51.291    52.654   L 
 C-CA--0.181823       -1    50.575    50.133    50.752   L 
 H-HA-0.137303        -1    51.206    50.137    51.626   L 
 C-CA--0.183461       -1    51.007    49.488    49.577   L 
 H-HA-0.132715        -1    51.968    48.996    49.559   L 
 C-C-0.622290         -1    52.03     48.785    45.051   L 
 O-O--0.526607        -1    51.267    48.733    44.085   L 
 N-N--0.541430        -1    53.23     48.201    45.05    L 
 H-H-0.345415         -1    53.798    48.28     45.883   L 
 C-CT-0.118140        -1    53.78     47.436    43.927   L 
 H-H1-0.142177        -1    53.671    48.023    43.021   L 
 C-CT-0.146998        -1    55.284    47.214    44.133   L 
 H-H1-0.040081        -1    55.772    48.171    44.321   L 
 H-H1-0.040081        -1    55.445    46.569    44.996   L 
 O-OH--0.640312       -1    55.851    46.624    42.981   L 
 H-HO-0.446255        -1    56.403    47.284    42.522   L 
 C-C-0.483424         -1    53.034    46.106    43.73    L 
 O-O--0.580829        -1    53.199    45.162    44.512   L 
 N-N--0.355153        -1    52.174    46.035    42.705   L 
 H-H-0.262417         -1    52.05     46.864    42.128   L 
 C-CT--0.101497       -1    51.239    44.92     42.518   L 
 H-H1-0.136951        -1    50.591    44.891    43.395   L 
 C-CT--0.144399       -1    50.369    45.197    41.278   L 
 H-HC-0.052533        -1    49.865    46.157    41.408   L 
 H-HC-0.052533        -1    51.02     45.278    40.405   L 
 C-CT-0.191982        -1    49.305    44.11     41.001   L 
 H-HC-0.000825        -1    49.799    43.147    40.863   L 
 C-CT--0.123036       -1    48.285    43.973    42.143   L 
 H-HC-0.022376        -1    47.524    43.239    41.873   L 
 H-HC-0.022376        -1    48.774    43.63     43.054   L 
 H-HC-0.022376        -1    47.802    44.932    42.333   L 
 C-CT--0.123036       -1    48.58     44.446    39.695   L 
 H-HC-0.022376        -1    47.828    43.684    39.491   L 
 H-HC-0.022376        -1    48.095    45.42     39.774   L 
 H-HC-0.022376        -1    49.292    44.466    38.869   L 
 C-C-0.573471         -1    51.926    43.548    42.445   L 
 O-O--0.557847        -1    51.514    42.638    43.161   L 
 N-N--0.371290        0     52.984    43.395    41.636   L 
 H-H-0.234053         0     53.302    44.186    41.098   L 
 C-CT--0.030057       0     53.722    42.126    41.534   L 
 H-H1-0.102448        0     53.007    41.34     41.287   L 
 C-CT--0.098720       0     54.755    42.188    40.392   L 
 H-HC-0.060989        0     55.258    41.221    40.332   L 
 H-HC-0.060989        0     54.229    42.321    39.448   L 
 C-CA-0.021313        0     55.814    43.271    40.499   L 
 C-CA--0.083109       0     56.978    43.054    41.263   L 
 H-HA-0.098466        0     57.12     42.119    41.787   L 
 C-CA--0.156974       0     57.964    44.052    41.349   L 
 H-HA-0.123731        0     58.855    43.886    41.939   L 
 C-CA--0.099824       0     57.797    45.264    40.658   L 
 H-HA-0.114679        0     58.557    46.029    40.719   L 
 C-CA--0.156974       0     56.646    45.478    39.881   L 
 H-HA-0.123731        0     56.53     46.405    39.34    L 
 C-CA--0.083109       0     55.654    44.486    39.803   L 
 H-HA-0.098466        0     54.776    44.655    39.196   L 
 C-C-0.547987         0     54.369    41.711    42.866   L 
 O-O--0.506795        0     54.418    40.521    43.174   L 
 N-N--0.355153        0     54.815    42.686    43.669   L 
 H-H-0.262417         0     54.73     43.641    43.348   L 
 C-CT--0.101497       0     55.371    42.468    45.005   L 
 H-H1-0.136951        0     56.115    41.672    44.946   L 
 C-CT--0.144399       0     56.049    43.789    45.451   L 
 H-HC-0.052533        0     56.457    44.284    44.567   L 
 H-HC-0.052533        0     55.289    44.453    45.859   L 
 C-CT-0.191982        0     57.201    43.713    46.473   L 
 H-HC-0.000825        0     57.507    44.739    46.685   L 
 C-CT--0.123036       0     56.78     43.082    47.803   L 
 H-HC-0.022376        0     55.888    43.581    48.183   L 
 H-HC-0.022376        0     56.58     42.02     47.666   L 
 H-HC-0.022376        0     57.583    43.195    48.533   L 
 C-CT--0.123036       0     58.422    42.983    45.9     L 
 H-HC-0.022376        0     59.248    43.046    46.609   L 
 H-HC-0.022376        0     58.191    41.933    45.72    L 
 H-HC-0.022376        0     58.73     43.45     44.964   L 
 C-C-0.573471         0     54.265    41.99     45.961   L 
 O-O--0.557847        0     54.4      40.933    46.573   L 
 N-N--0.450087        0     53.145    42.717    46.034   L 
 H-H-0.440048         0     53.105    43.565    45.465   L 
 C-CT--0.051858       0     52.003    42.381    46.913   L 
 H-H1--0.026204       0     52.384    42.329    47.932   L 
 C-CT-0.395217        0     50.914    43.483    46.874   L 
 H-HC--0.115672       0     50.646    43.673    45.833   L 
 C-CT--0.090132       0     49.632    43.096    47.636   L 
 H-HC--0.008985       0     48.941    43.939    47.66    L 
 H-HC--0.008985       0     49.13     42.266    47.139   L 
 H-HC--0.008985       0     49.876    42.806    48.658   L 
 C-CT--0.090132       0     51.451    44.791    47.48    L 
 H-HC--0.008985       0     51.748    44.63     48.515   L 
 H-HC--0.008985       0     52.313    45.151    46.923   L 
 H-HC--0.008985       0     50.675    45.555    47.448   L 
 C-C-0.447359         0     51.396    41.009    46.575   L 
 O-O--0.404629        0     51.14     40.208    47.478   L 
 N-N--0.404773        0     51.2      40.712    45.283   L 
 H-H-0.294276         0     51.429    41.413    44.583   L 
 C-CT--0.027733       0     50.591    39.466    44.814   L 
 H-H1-0.120802        0     49.583    39.397    45.228   L 
 C-CT--0.229951       0     50.476    39.526    43.284   L 
 H-HC-0.077428        0     49.999    38.616    42.916   L 
 H-HC-0.077428        0     49.871    40.385    42.989   L 
 H-HC-0.077428        0     51.467    39.615    42.837   L 
 C-C-0.570224         0     51.339    38.202    45.271   L 
 O-O--0.555129        0     50.695    37.187    45.53    L 
 N-N--0.404773        0     52.667    38.263    45.432   L 
 H-H-0.294276         0     53.137    39.138    45.23    L 
 C-CT--0.027733       0     53.484    37.121    45.85    L 
 H-H1-0.120802        0     53.36     36.324    45.114   L 
 C-CT--0.229951       0     54.957    37.552    45.845   L 
 H-HC-0.077428        0     55.125    38.339    46.582   L 
 H-HC-0.077428        0     55.591    36.698    46.088   L 
 H-HC-0.077428        0     55.234    37.927    44.859   L 
 C-C-0.570224         0     53.063    36.534    47.211   L 
 O-O--0.555129        0     53.052    35.314    47.368   L 
 N-N--0.506799        0     52.676    37.382    48.172   L 
 H-H-0.351021         0     52.687    38.37     47.952   L 
 C-CT-0.119066        0     52.184    36.95     49.488   L 
 H-H1-0.137761        0     52.887    36.235    49.923   L 
 C-CT--0.122638       0     52.102    38.185    50.409   L    H-H4     1024  0.        0. 
 H-HC-0.086329        0     53.106    38.59     50.543   L 
 H-HC-0.086329        0     51.501    38.954    49.92    L 
 C-CC--0.001547       0     51.5      37.93     51.776   H 
 N-NA--0.205785       0     52.177    37.748    52.956   H 
 H-H-0.318273         0     53.19     37.714    53.06    H 
 C-CR-0.147273        0     51.273    37.643    53.946   H 
 H-H5-0.122182        0     51.534    37.511    54.988   H 
 N-NB--0.601482       0     50.011    37.753    53.477   H 
 C-CV-0.043744        0     50.17     37.949    52.091   H 
 H-H4-0.110157        0     49.384    38.114    51.372   H 
 C-C-0.515947         0     50.83     36.221    49.387   L 
 O-O--0.599831        0     50.676    35.13     49.936   L 
 N-N--0.423392        0     49.859    36.79     48.661   L 
 H-H-0.306811         0     50.057    37.652    48.175   L 
 C-CT-0.031633        0     48.533    36.183    48.487   L 
 H-H1-0.065100        0     48.115    35.966    49.471   L 
 C-CT-0.074772        0     47.586    37.153    47.757   L    H-HC     1041  0.        0. 
 H-HC--0.003535       0     47.997    37.378    46.772   L 
 H-HC--0.003535       0     46.628    36.658    47.606   L 
 C-CT--0.033909       0     47.331    38.481    48.49    H 
 H-HC--0.004135       0     48.254    39.064    48.501   H 
 H-HC--0.004135       0     46.59     39.042    47.922   H 
 C-C-0.765188         0     46.824    38.313    49.925   H 
 O-O2--0.824035       0     47.277    39.065    50.818   H 
 O-O2--0.824035       0     46.048    37.375    50.213   H 
 C-C-0.469735         0     48.627    34.846    47.734   L 
 O-O--0.592528        0     48.068    33.84     48.175   L 
 N-N--0.371290        0     49.417    34.793    46.655   L 
 H-H-0.234053         0     49.859    35.644    46.322   L 
 C-CT--0.030057       0     49.7      33.548    45.939   L 
 H-H1-0.102448        0     48.751    33.101    45.643   L 
 C-CT--0.098720       0     50.508    33.837    44.661   L 
 H-HC-0.060989        0     51.323    34.521    44.9     L 
 H-HC-0.060989        0     50.96     32.895    44.347   L 
 C-CA-0.021313        0     49.747    34.381    43.454   L 
 C-CA--0.083109       0     48.482    35.       43.562   L 
 H-HA-0.098466        0     47.994    35.112    44.518   L 
 C-CA--0.156974       0     47.817    35.47     42.415   L 
 H-HA-0.123731        0     46.842    35.926    42.51    L 
 C-CA--0.099824       0     48.41     35.333    41.149   L 
 H-HA-0.114679        0     47.893    35.682    40.267   L 
 C-CA--0.156974       0     49.67     34.724    41.033   L 
 H-HA-0.123731        0     50.124    34.604    40.058   L 
 C-CA--0.083109       0     50.33     34.243    42.178   L 
 H-HA-0.098466        0     51.289    33.759    42.072   L 
 C-C-0.547987         0     50.405    32.516    46.839   L 
 O-O--0.506795        0     50.19     31.321    46.657   L 
 N-N--0.374282        0     51.167    32.949    47.853   L 
 H-H-0.253981         0     51.307    33.947    47.955   L 
 C-CT--0.128844       0     51.741    32.07     48.878   L 
 H-HC-0.088859        0     52.31     31.273    48.398   L 
 H-HC-0.088859        0     52.398    32.653    49.524   L 
 C-C-0.580584         0     50.666    31.423    49.749   L 
 O-O--0.509157        0     50.701    30.213    49.971   L 
 N-N--0.506799        0     49.657    32.183    50.182   L 
 H-H-0.351021         0     49.665    33.173    49.945   L 
 C-CT-0.119066        0     48.481    31.6      50.843   L 
 H-H1-0.137761        0     48.823    31.027    51.704   L 
 C-CT--0.122638       0     47.532    32.693    51.348   L    H-H4     1083  0.        0. 
 H-HC-0.086329        0     47.312    33.403    50.551   L 
 H-HC-0.086329        0     46.586    32.232    51.638   L 
 C-CC--0.001547       0     48.07     33.428    52.543   H 
 N-NA--0.205785       0     47.943    33.047    53.856   H 
 H-H-0.318273         0     47.409    32.258    54.22    H 
 C-CR-0.147273        0     48.518    33.985    54.618   H 
 H-H5-0.122182        0     48.526    33.964    55.7     H 
 N-NB--0.601482       0     48.973    35.003    53.864   H 
 C-CV-0.043744        0     48.736    34.621    52.536   H 
 H-H4-0.110157        0     48.975    35.199    51.654   H 
 C-C-0.515947         0     47.732    30.604    49.94    L 
 O-O--0.599831        0     47.34     29.534    50.419   L 
 N-N--0.404773        0     47.6      30.914    48.644   L 
 H-H-0.294276         0     47.896    31.839    48.341   L 
 C-CT--0.027733       0     47.019    30.022    47.637   L 
 H-H1-0.120802        0     46.051    29.68     48.011   L 
 C-CT--0.229951       0     46.776    30.822    46.35    L 
 H-HC-0.077428        0     46.235    30.207    45.63    L 
 H-HC-0.077428        0     46.184    31.714    46.566   L 
 H-HC-0.077428        0     47.723    31.117    45.904   L 
 C-C-0.570224         0     47.853    28.754    47.36    L 
 O-O--0.555129        0     47.294    27.757    46.908   L 
 N-N--0.394918        0     49.163    28.734    47.651   L 
 H-H-0.280537         0     49.611    29.606    47.908   L 
 C-CT--0.087681       0     49.957    27.49     47.658   L 
 H-H1-0.123080        0     49.746    26.93     46.747   L 
 C-CT-0.019227        0     51.474    27.767    47.703   L 
 H-HC-0.048840        0     51.716    28.325    48.606   L 
 H-HC-0.048840        0     51.987    26.808    47.77    L 
 C-CT--0.208167       0     52.067    28.509    46.497   L 
 H-H1-0.124228        0     51.705    29.533    46.484   L 
 H-H1-0.124228        0     53.146    28.57     46.649   L 
 S-S--0.211958        0     51.789    27.762    44.869   L 
 C-CT--0.284698       0     50.369    28.749    44.329   L 
 H-H1-0.128394        0     49.516    28.569    44.981   L 
 H-H1-0.128394        0     50.625    29.809    44.362   L 
 H-H1-0.128394        0     50.1      28.477    43.31    L 
 C-C-0.599684         0     49.592    26.566    48.833   L 
 O-O--0.566424        0     49.851    25.366    48.754   L 
 N-N--0.374282        0     49.007    27.109    49.911   L 
 H-H-0.253981         0     48.736    28.084    49.851   L 
 C-CT--0.128844       0     48.717    26.404    51.169   L 
 H-HC-0.088859        0     47.655    26.496    51.384   L 
 H-HC-0.088859        0     48.971    25.35     51.074   L 
 C-C-0.580584         0     49.445    26.953    52.399   L 
 O-O--0.509157        0     49.243    26.433    53.498   L 
 N-N--0.355153        0     50.28     27.989    52.245   L 
 H-H-0.262417         0     50.377    28.398    51.326   L 
 C-CT--0.101497       0     51.005    28.624    53.355   L 
 H-H1-0.136951        0     51.426    27.844    53.993   L 
 C-CT--0.144399       0     52.152    29.504    52.807   L 
 H-HC-0.052533        0     51.714    30.36     52.296   L 
 H-HC-0.052533        0     52.724    29.895    53.651   L 
 C-CT-0.191982        0     53.135    28.807    51.847   L 
 H-HC-0.000825        0     52.589    28.392    51.      L 
 C-CT--0.123036       0     54.15     29.822    51.304   L 
 H-HC-0.022376        0     53.63     30.616    50.77    L 
 H-HC-0.022376        0     54.724    30.258    52.123   L 
 H-HC-0.022376        0     54.833    29.326    50.613   L 
 C-CT--0.123036       0     53.887    27.672    52.546   L 
 H-HC-0.022376        0     54.468    28.066    53.381   L 
 H-HC-0.022376        0     53.191    26.922    52.917   L 
 H-HC-0.022376        0     54.554    27.197    51.832   L 
 C-C-0.573471         0     50.078    29.476    54.235   L 
 O-O--0.557847        0     48.978    29.855    53.825   L 
 N-N--0.423392        0     50.567    29.85     55.415   L 
 H-H-0.306811         0     51.442    29.439    55.722   L 
 C-CT-0.031633        0     49.955    30.841    56.297   L 
 H-H1-0.065100        0     49.34     31.493    55.682   L 
 C-CT-0.074772        0     49.064    30.14     57.345   L 
 H-HC--0.003535       0     49.413    29.12     57.515   L 
 H-HC--0.003535       0     49.138    30.66     58.295   L 
 C-CT--0.033909       0     47.582    30.111    56.946   L 
 H-HC--0.004135       0     47.458    29.451    56.086   L 
 H-HC--0.004135       0     47.002    29.704    57.773   L 
 C-C-0.765188         0     47.038    31.5      56.608   L 
 O-O2--0.824035       0     47.399    32.489    57.292   L 
 O-O2--0.824035       0     46.302    31.625    55.601   L 
 C-C-0.469735         0     50.996    31.775    56.939   L 
 O-O--0.592528        0     52.202    31.627    56.729   L 
 N-N--0.506799        0     50.521    32.794    57.663   L 
 H-H-0.351021         0     49.518    32.845    57.815   L 
 C-CT-0.119066        0     51.349    33.906    58.141   L 
 H-H1-0.137761        0     51.788    34.361    57.259   L 
 C-CT--0.122638       0     50.476    34.958    58.852   L    H-H4     1168  0.        0. 
 H-HC-0.086329        0     49.855    34.464    59.6     L 
 H-HC-0.086329        0     51.129    35.651    59.385   L 
 C-CC--0.001547       0     49.607    35.795    57.944   H 
 N-NA--0.205785       0     48.463    36.469    58.306   H 
 H-H-0.318273         0     47.999    36.451    59.21    H 
 C-CR-0.147273        0     48.039    37.164    57.241   H 
 H-H5-0.122182        0     47.152    37.786    57.243   H 
 N-NB--0.601482       0     48.838    36.957    56.171   H 
 C-CV-0.043744        0     49.855    36.112    56.634   H 
 H-H4-0.110157        0     50.692    35.76     56.048   H 
 C-C-0.515947         0     52.546    33.516    59.031   L 
 O-O--0.599831        0     52.499    32.575    59.827   L 
 N-N--0.541430        0     53.594    34.335    58.959   L 
 H-H-0.345415         0     53.504    35.155    58.366   L 
 C-CT-0.118140        0     54.828    34.248    59.749   L 
 H-H1-0.142177        0     54.796    33.385    60.415   L 
 C-CT-0.146998        0     56.015    34.059    58.784   L 
 H-H1-0.040081        0     55.842    33.156    58.198   L 
 H-H1-0.040081        0     56.066    34.909    58.102   L 
 O-OH--0.640312       0     57.259    33.935    59.451   L 
 H-HO-0.446255        0     57.899    33.509    58.838   L 
 C-C-0.483424         0     54.987    35.515    60.609   L 
 O-O--0.580829        0     54.299    36.517    60.39    L 
 N-N--0.387353        0     55.901    35.49     61.581   L 
 H-H-0.300605         0     56.463    34.649    61.69    L 
 C-CT-0.037470        0     56.188    36.606    62.49    L 
 H-H1-0.152255        0     55.569    37.464    62.222   L 
 C-CT--0.032112       0     55.843    36.188    63.934   L 
 H-HC-0.030995        0     56.338    35.244    64.168   L 
 H-HC-0.030995        0     56.209    36.946    64.627   L 
 C-CT--0.020264       0     54.328    36.044    64.157   L 
 H-HC-0.030791        0     53.853    37.009    63.984   L 
 H-HC-0.030791        0     53.922    35.329    63.441   L 
 C-C-0.667812         0     53.966    35.57     65.566   L 
 O-O--0.628483        0     54.729    35.677    66.522   L 
 N-N--0.883393        0     52.787    35.022    65.767   L 
 H-H-0.408312         0     52.643    34.558    66.66    L 
 H-H-0.408312         0     52.137    34.876    65.      L 
 C-C-0.418577         0     57.646    37.085    62.353   L 
 O-O--0.565310        0     58.118    37.895    63.155   L 
 N-N--0.558201        -1    58.367    36.587    61.346   L 
 H-H-0.319676         -1    57.922    35.909    60.739   L 
 C-CT-0.007225        -1    59.72     36.994    60.967   L 
 H-H1-0.082375        -1    60.375    36.774    61.808   L 
 C-CT--0.047555       -1    60.136    36.106    59.787   L 
 H-HC--0.014836       -1    59.949    35.059    60.034   L 
 H-HC--0.014836       -1    59.522    36.364    58.924   L 
 C-C-0.745168         -1    61.61     36.269    59.433   L 
 O-O2--0.730385       -1    61.926    37.172    58.627   L 
 O-O2--0.730385       -1    62.44     35.52     60.005   L 
 C-C-0.443199         -1    59.809    38.497    60.581   L 
 O-O--0.501445        -1    58.853    39.029    60.009   L 
 N-N--0.088116        -1    60.931    39.196    60.857   L 
 C-CT--0.011906       -1    62.049    38.731    61.662   L 
 H-H1-0.043951        -1    62.72     38.16     61.024   L 
 H-H1-0.043950        -1    61.731    38.142    62.522   L 
 C-CT-0.013059        -1    62.769    39.98     62.145   L 
 H-HC-0.019574        -1    63.823    39.783    62.332   L 
 H-HC-0.019574        -1    62.283    40.366    63.039   L 
 C-CT--0.003351       -1    62.557    40.944    60.987   L 
 H-HC-0.019352        -1    63.292    40.734    60.21    L 
 H-HC-0.019352        -1    62.625    41.985    61.304   L 
 C-CT--0.034577       -1    61.153    40.596    60.481   L 
 H-H1-0.059977        -1    60.425    41.206    61.017   L 
 C-C-0.333720         -1    61.068    40.938    58.986   L 
 O-O--0.434559        -1    60.887    42.115    58.672   L 
 N-N--0.374282        -1    61.219    39.975    58.063   L 
[...]
 I= 1047 IAn=  6 Valence= 5.
          JB=  1 J= 1048 IAn=  8 IBT= 2 Dist= 1.23D+00
          JB=  2 J= 1049 IAn=  7 IBT=22 Dist= 1.34D+00
          JB=  3 J= 1036 IAn=  6 IBT= 1 Dist= 1.54D+00
 I= 1049 IAn=  7 Valence= 4.
          JB=  1 J= 1050 IAn=  1 IBT= 1 Dist= 1.02D+00
          JB=  2 J= 1051 IAn=  6 IBT= 1 Dist= 1.46D+00
          JB=  3 J= 1047 IAn=  6 IBT=12 Dist= 1.34D+00
 I= 1067 IAn=  6 Valence= 5.
          JB=  1 J= 1068 IAn=  8 IBT= 2 Dist= 1.23D+00
          JB=  2 J= 1069 IAn=  7 IBT=22 Dist= 1.34D+00
          JB=  3 J= 1051 IAn=  6 IBT= 1 Dist= 1.54D+00
 I= 1069 IAn=  7 Valence= 4.
          JB=  1 J= 1070 IAn=  1 IBT= 1 Dist= 1.01D+00
          JB=  2 J= 1071 IAn=  6 IBT= 1 Dist= 1.47D+00
          JB=  3 J= 1067 IAn=  6 IBT=12 Dist= 1.34D+00
 I= 1074 IAn=  6 Valence= 5.
          JB=  1 J= 1075 IAn=  8 IBT= 2 Dist= 1.23D+00
          JB=  2 J= 1076 IAn=  7 IBT=22 Dist= 1.34D+00
          JB=  3 J= 1071 IAn=  6 IBT= 1 Dist= 1.53D+00
 I= 1076 IAn=  7 Valence= 4.
          JB=  1 J= 1077 IAn=  1 IBT= 1 Dist= 1.02D+00
          JB=  2 J= 1078 IAn=  6 IBT= 1 Dist= 1.47D+00
          JB=  3 J= 1074 IAn=  6 IBT=12 Dist= 1.34D+00
 I= 1083 IAn=  6 Valence= 5.
          JB=  1 J= 1084 IAn=  7 IBT=12 Dist= 1.37D+00
          JB=  2 J= 1089 IAn=  6 IBT= 2 Dist= 1.37D+00
          JB=  3 J= 1080 IAn=  6 IBT= 1 Dist= 1.50D+00
 I= 1084 IAn=  7 Valence= 4.
          JB=  1 J= 1085 IAn=  1 IBT= 1 Dist= 1.02D+00
          JB=  2 J= 1086 IAn=  6 IBT=12 Dist= 1.34D+00
          JB=  3 J= 1083 IAn=  6 IBT=12 Dist= 1.37D+00
 I= 1091 IAn=  6 Valence= 5.
          JB=  1 J= 1092 IAn=  8 IBT= 2 Dist= 1.24D+00
          JB=  2 J= 1093 IAn=  7 IBT=22 Dist= 1.34D+00
          JB=  3 J= 1078 IAn=  6 IBT= 1 Dist= 1.54D+00
 I= 1093 IAn=  7 Valence= 4.
          JB=  1 J= 1094 IAn=  1 IBT= 1 Dist= 1.02D+00
          JB=  2 J= 1095 IAn=  6 IBT= 1 Dist= 1.47D+00
          JB=  3 J= 1091 IAn=  6 IBT=12 Dist= 1.34D+00
 I= 1101 IAn=  6 Valence= 5.
          JB=  1 J= 1102 IAn=  8 IBT= 2 Dist= 1.23D+00
          JB=  2 J= 1103 IAn=  7 IBT=22 Dist= 1.34D+00
          JB=  3 J= 1095 IAn=  6 IBT= 1 Dist= 1.54D+00
 I= 1103 IAn=  7 Valence= 4.
          JB=  1 J= 1104 IAn=  1 IBT= 1 Dist= 1.01D+00
          JB=  2 J= 1105 IAn=  6 IBT= 1 Dist= 1.48D+00
          JB=  3 J= 1101 IAn=  6 IBT=12 Dist= 1.34D+00
 I= 1118 IAn=  6 Valence= 5.
          JB=  1 J= 1119 IAn=  8 IBT= 2 Dist= 1.23D+00
          JB=  2 J= 1120 IAn=  7 IBT=22 Dist= 1.34D+00
          JB=  3 J= 1105 IAn=  6 IBT= 1 Dist= 1.54D+00
 I= 1120 IAn=  7 Valence= 4.
          JB=  1 J= 1121 IAn=  1 IBT= 1 Dist= 1.01D+00
          JB=  2 J= 1122 IAn=  6 IBT= 1 Dist= 1.47D+00
          JB=  3 J= 1118 IAn=  6 IBT=12 Dist= 1.34D+00
 I= 1125 IAn=  6 Valence= 5.
          JB=  1 J= 1126 IAn=  8 IBT= 2 Dist= 1.23D+00
          JB=  2 J= 1127 IAn=  7 IBT=22 Dist= 1.34D+00
          JB=  3 J= 1122 IAn=  6 IBT= 1 Dist= 1.53D+00
 I= 1127 IAn=  7 Valence= 4.
          JB=  1 J= 1128 IAn=  1 IBT= 1 Dist= 1.01D+00
          JB=  2 J= 1129 IAn=  6 IBT= 1 Dist= 1.47D+00
          JB=  3 J= 1125 IAn=  6 IBT=12 Dist= 1.34D+00
 I= 1144 IAn=  6 Valence= 5.
          JB=  1 J= 1145 IAn=  8 IBT= 2 Dist= 1.23D+00
          JB=  2 J= 1146 IAn=  7 IBT=22 Dist= 1.33D+00
          JB=  3 J= 1129 IAn=  6 IBT= 1 Dist= 1.54D+00
 I= 1146 IAn=  7 Valence= 4.
          JB=  1 J= 1147 IAn=  1 IBT= 1 Dist= 1.01D+00
          JB=  2 J= 1148 IAn=  6 IBT= 1 Dist= 1.46D+00
          JB=  3 J= 1144 IAn=  6 IBT=12 Dist= 1.33D+00
 I= 1156 IAn=  6 Valence= 5.
          JB=  1 J= 1157 IAn=  8 IBT= 2 Dist= 1.26D+00
          JB=  2 J= 1158 IAn=  8 IBT= 2 Dist= 1.25D+00
          JB=  3 J= 1153 IAn=  6 IBT= 1 Dist= 1.53D+00
 I= 1159 IAn=  6 Valence= 5.
          JB=  1 J= 1160 IAn=  8 IBT= 2 Dist= 1.23D+00
          JB=  2 J= 1161 IAn=  7 IBT=22 Dist= 1.34D+00
          JB=  3 J= 1148 IAn=  6 IBT= 1 Dist= 1.54D+00
 I= 1161 IAn=  7 Valence= 4.
          JB=  1 J= 1162 IAn=  1 IBT= 1 Dist= 1.02D+00
          JB=  2 J= 1163 IAn=  6 IBT= 1 Dist= 1.47D+00
          JB=  3 J= 1159 IAn=  6 IBT=12 Dist= 1.34D+00
 I= 1168 IAn=  6 Valence= 5.
          JB=  1 J= 1169 IAn=  7 IBT=12 Dist= 1.38D+00
          JB=  2 J= 1174 IAn=  6 IBT= 2 Dist= 1.37D+00
          JB=  3 J= 1165 IAn=  6 IBT= 1 Dist= 1.51D+00
 I= 1169 IAn=  7 Valence= 4.
          JB=  1 J= 1170 IAn=  1 IBT= 1 Dist= 1.02D+00
          JB=  2 J= 1171 IAn=  6 IBT=12 Dist= 1.34D+00
          JB=  3 J= 1168 IAn=  6 IBT=12 Dist= 1.38D+00
 I= 1176 IAn=  6 Valence= 5.
          JB=  1 J= 1177 IAn=  8 IBT= 2 Dist= 1.23D+00
          JB=  2 J= 1178 IAn=  7 IBT=22 Dist= 1.33D+00
          JB=  3 J= 1163 IAn=  6 IBT= 1 Dist= 1.54D+00
 I= 1178 IAn=  7 Valence= 4.
          JB=  1 J= 1179 IAn=  1 IBT= 1 Dist= 1.02D+00
          JB=  2 J= 1180 IAn=  6 IBT= 1 Dist= 1.47D+00
          JB=  3 J= 1176 IAn=  6 IBT=12 Dist= 1.33D+00
 I= 1187 IAn=  6 Valence= 5.
          JB=  1 J= 1188 IAn=  8 IBT= 2 Dist= 1.24D+00
          JB=  2 J= 1189 IAn=  7 IBT=22 Dist= 1.33D+00
          JB=  3 J= 1180 IAn=  6 IBT= 1 Dist= 1.54D+00
 I= 1189 IAn=  7 Valence= 4.
          JB=  1 J= 1190 IAn=  1 IBT= 1 Dist= 1.02D+00
          JB=  2 J= 1191 IAn=  6 IBT= 1 Dist= 1.47D+00
          JB=  3 J= 1187 IAn=  6 IBT=12 Dist= 1.33D+00
 I= 1199 IAn=  6 Valence= 5.
          JB=  1 J= 1200 IAn=  8 IBT= 2 Dist= 1.23D+00
          JB=  2 J= 1201 IAn=  7 IBT= 2 Dist= 1.32D+00
          JB=  3 J= 1196 IAn=  6 IBT= 1 Dist= 1.53D+00
 I= 1201 IAn=  7 Valence= 4.
          JB=  1 J= 1202 IAn=  1 IBT= 1 Dist= 1.02D+00
          JB=  2 J= 1203 IAn=  1 IBT= 1 Dist= 1.02D+00
          JB=  3 J= 1199 IAn=  6 IBT= 2 Dist= 1.32D+00
 I= 1204 IAn=  6 Valence= 5.
          JB=  1 J= 1205 IAn=  8 IBT= 2 Dist= 1.23D+00
          JB=  2 J= 1206 IAn=  7 IBT=22 Dist= 1.33D+00
          JB=  3 J= 1191 IAn=  6 IBT= 1 Dist= 1.54D+00
 I= 1206 IAn=  7 Valence= 4.
          JB=  1 J= 1207 IAn=  1 IBT= 1 Dist= 1.01D+00
          JB=  2 J= 1208 IAn=  6 IBT= 1 Dist= 1.46D+00
          JB=  3 J= 1204 IAn=  6 IBT=12 Dist= 1.33D+00
 I= 1213 IAn=  6 Valence= 5.
          JB=  1 J= 1214 IAn=  8 IBT= 2 Dist= 1.25D+00
          JB=  2 J= 1215 IAn=  8 IBT= 2 Dist= 1.26D+00
          JB=  3 J= 1210 IAn=  6 IBT= 1 Dist= 1.52D+00
 I= 1216 IAn=  6 Valence= 5.
          JB=  1 J= 1217 IAn=  8 IBT= 2 Dist= 1.23D+00
          JB=  2 J= 1218 IAn=  7 IBT=22 Dist= 1.35D+00
          JB=  3 J= 1208 IAn=  6 IBT= 1 Dist= 1.55D+00
 I= 1218 IAn=  7 Valence= 4.
          JB=  1 J= 1219 IAn=  6 IBT= 1 Dist= 1.45D+00
          JB=  2 J= 1228 IAn=  6 IBT= 1 Dist= 1.47D+00
          JB=  3 J= 1216 IAn=  6 IBT=12 Dist= 1.35D+00
 I= 1230 IAn=  6 Valence= 5.
          JB=  1 J= 1231 IAn=  8 IBT= 2 Dist= 1.23D+00
          JB=  2 J= 1232 IAn=  7 IBT=22 Dist= 1.34D+00
          JB=  3 J= 1228 IAn=  6 IBT= 1 Dist= 1.54D+00
 I= 1232 IAn=  7 Valence= 4.
          JB=  1 J= 1233 IAn=  1 IBT= 1 Dist= 1.02D+00
          JB=  2 J= 1234 IAn=  6 IBT= 1 Dist= 1.47D+00
          JB=  3 J= 1230 IAn=  6 IBT=12 Dist= 1.34D+00
 I= 1237 IAn=  6 Valence= 5.
          JB=  1 J= 1238 IAn=  8 IBT= 2 Dist= 1.23D+00
          JB=  2 J= 1239 IAn=  7 IBT=22 Dist= 1.34D+00
          JB=  3 J= 1234 IAn=  6 IBT= 1 Dist= 1.53D+00
 I= 1239 IAn=  7 Valence= 4.
          JB=  1 J= 1240 IAn=  1 IBT= 1 Dist= 1.01D+00
          JB=  2 J= 1241 IAn=  6 IBT= 1 Dist= 1.47D+00
          JB=  3 J= 1237 IAn=  6 IBT=12 Dist= 1.34D+00
 I= 1247 IAn=  6 Valence= 5.
          JB=  1 J= 1248 IAn=  8 IBT= 2 Dist= 1.23D+00
          JB=  2 J= 1249 IAn=  7 IBT=22 Dist= 1.33D+00
          JB=  3 J= 1241 IAn=  6 IBT= 1 Dist= 1.55D+00
 I= 1249 IAn=  7 Valence= 4.
          JB=  1 J= 1250 IAn=  1 IBT= 1 Dist= 1.02D+00
          JB=  2 J= 1251 IAn=  6 IBT= 1 Dist= 1.47D+00
          JB=  3 J= 1247 IAn=  6 IBT=12 Dist= 1.33D+00
 I= 1266 IAn=  6 Valence= 5.
          JB=  1 J= 1267 IAn=  8 IBT= 2 Dist= 1.23D+00
          JB=  2 J= 1268 IAn=  7 IBT=22 Dist= 1.34D+00
          JB=  3 J= 1251 IAn=  6 IBT= 1 Dist= 1.53D+00
 I= 1268 IAn=  7 Valence= 4.
          JB=  1 J= 1269 IAn=  1 IBT= 1 Dist= 1.02D+00
          JB=  2 J= 1270 IAn=  6 IBT= 1 Dist= 1.47D+00
          JB=  3 J= 1266 IAn=  6 IBT=12 Dist= 1.34D+00
 I= 1283 IAn=  6 Valence= 5.
          JB=  1 J= 1284 IAn=  8 IBT= 2 Dist= 1.23D+00
          JB=  2 J= 1285 IAn=  7 IBT=12 Dist= 1.34D+00
          JB=  3 J= 1270 IAn=  6 IBT= 1 Dist= 1.54D+00
 I= 1285 IAn=  7 Valence= 4.
          JB=  1 J= 1286 IAn=  1 IBT= 1 Dist= 1.02D+00
          JB=  2 J= 1287 IAn=  6 IBT= 1 Dist= 1.47D+00
          JB=  3 J= 1283 IAn=  6 IBT=12 Dist= 1.34D+00
 I= 1293 IAn=  6 Valence= 5.
          JB=  1 J= 1294 IAn=  8 IBT= 2 Dist= 1.23D+00
          JB=  2 J= 1295 IAn=  7 IBT=22 Dist= 1.35D+00
          JB=  3 J= 1287 IAn=  6 IBT= 1 Dist= 1.55D+00
 I= 1295 IAn=  7 Valence= 4.
          JB=  1 J= 1296 IAn=  6 IBT= 1 Dist= 1.46D+00
          JB=  2 J= 1305 IAn=  6 IBT= 1 Dist= 1.47D+00
          JB=  3 J= 1293 IAn=  6 IBT=12 Dist= 1.35D+00
 I= 1307 IAn=  6 Valence= 5.
          JB=  1 J= 1308 IAn=  8 IBT= 2 Dist= 1.23D+00
          JB=  2 J= 1309 IAn=  7 IBT=22 Dist= 1.34D+00
          JB=  3 J= 1305 IAn=  6 IBT= 1 Dist= 1.55D+00
 I= 1309 IAn=  7 Valence= 4.
          JB=  1 J= 1310 IAn=  1 IBT= 1 Dist= 1.02D+00
          JB=  2 J= 1311 IAn=  6 IBT= 1 Dist= 1.48D+00
          JB=  3 J= 1307 IAn=  6 IBT=12 Dist= 1.34D+00
 I= 1326 IAn=  6 Valence= 5.
          JB=  1 J= 1327 IAn=  8 IBT= 2 Dist= 1.23D+00
          JB=  2 J= 1328 IAn=  7 IBT=22 Dist= 1.33D+00
          JB=  3 J= 1311 IAn=  6 IBT= 1 Dist= 1.53D+00
 I= 1328 IAn=  7 Valence= 4.
          JB=  1 J= 1329 IAn=  1 IBT= 1 Dist= 1.01D+00
          JB=  2 J= 1330 IAn=  6 IBT= 1 Dist= 1.47D+00
          JB=  3 J= 1326 IAn=  6 IBT=12 Dist= 1.33D+00
 I= 1347 IAn=  6 Valence= 5.
          JB=  1 J= 1348 IAn=  8 IBT= 2 Dist= 1.24D+00
          JB=  2 J= 1349 IAn=  7 IBT=22 Dist= 1.34D+00
          JB=  3 J= 1330 IAn=  6 IBT= 1 Dist= 1.54D+00
 I= 1349 IAn=  7 Valence= 4.
          JB=  1 J= 1350 IAn=  1 IBT= 1 Dist= 1.01D+00
          JB=  2 J= 1351 IAn=  6 IBT= 1 Dist= 1.48D+00
          JB=  3 J= 1347 IAn=  6 IBT=12 Dist= 1.34D+00
 I= 1361 IAn=  6 Valence= 5.
          JB=  1 J= 1362 IAn=  8 IBT= 2 Dist= 1.23D+00
          JB=  2 J= 1363 IAn=  7 IBT=22 Dist= 1.34D+00
          JB=  3 J= 1351 IAn=  6 IBT= 1 Dist= 1.53D+00
 I= 1363 IAn=  7 Valence= 4.
          JB=  1 J= 1364 IAn=  1 IBT= 1 Dist= 1.01D+00
          JB=  2 J= 1365 IAn=  6 IBT= 1 Dist= 1.48D+00
          JB=  3 J= 1361 IAn=  6 IBT=12 Dist= 1.34D+00
 I= 1402 IAn=  6 Valence= 5.
          JB=  1 J= 1403 IAn=  8 IBT= 2 Dist= 1.23D+00
          JB=  2 J= 1404 IAn=  7 IBT=22 Dist= 1.34D+00
          JB=  3 J= 1386 IAn=  6 IBT= 1 Dist= 1.54D+00
 I= 1404 IAn=  7 Valence= 4.
          JB=  1 J= 1405 IAn=  1 IBT= 1 Dist= 1.01D+00
          JB=  2 J= 1406 IAn=  6 IBT= 1 Dist= 1.47D+00
          JB=  3 J= 1402 IAn=  6 IBT=12 Dist= 1.34D+00
 I= 1417 IAn=  7 Valence= 4.
          JB=  1 J= 1418 IAn=  1 IBT= 1 Dist= 1.02D+00
          JB=  2 J= 1419 IAn=  6 IBT=12 Dist= 1.32D+00
          JB=  3 J= 1414 IAn=  6 IBT= 1 Dist= 1.47D+00
 I= 1419 IAn=  6 Valence= 6.
          JB=  1 J= 1420 IAn=  7 IBT= 2 Dist= 1.31D+00
          JB=  2 J= 1423 IAn=  7 IBT= 2 Dist= 1.31D+00
          JB=  3 J= 1417 IAn=  7 IBT=12 Dist= 1.32D+00
 I= 1420 IAn=  7 Valence= 4.
          JB=  1 J= 1421 IAn=  1 IBT= 1 Dist= 1.01D+00
          JB=  2 J= 1422 IAn=  1 IBT= 1 Dist= 1.01D+00
          JB=  3 J= 1419 IAn=  6 IBT= 2 Dist= 1.31D+00
 I= 1423 IAn=  7 Valence= 4.
          JB=  1 J= 1424 IAn=  1 IBT= 1 Dist= 1.02D+00
          JB=  2 J= 1425 IAn=  1 IBT= 1 Dist= 1.01D+00
          JB=  3 J= 1419 IAn=  6 IBT= 2 Dist= 1.31D+00
 I= 1426 IAn=  6 Valence= 5.
          JB=  1 J= 1427 IAn=  8 IBT= 2 Dist= 1.24D+00
          JB=  2 J= 1428 IAn=  7 IBT=12 Dist= 1.33D+00
          JB=  3 J= 1406 IAn=  6 IBT= 1 Dist= 1.54D+00
 I= 1428 IAn=  7 Valence= 4.
          JB=  1 J= 1429 IAn=  1 IBT= 1 Dist= 1.02D+00
          JB=  2 J= 1430 IAn=  6 IBT= 1 Dist= 1.46D+00
          JB=  3 J= 1426 IAn=  6 IBT=12 Dist= 1.33D+00
 I= 1445 IAn=  6 Valence= 5.
          JB=  1 J= 1446 IAn=  8 IBT= 2 Dist= 1.23D+00
          JB=  2 J= 1447 IAn=  7 IBT=22 Dist= 1.33D+00
          JB=  3 J= 1430 IAn=  6 IBT= 1 Dist= 1.54D+00
 I= 1447 IAn=  7 Valence= 4.
          JB=  1 J= 1448 IAn=  1 IBT= 1 Dist= 1.01D+00
          JB=  2 J= 1449 IAn=  6 IBT= 1 Dist= 1.47D+00
          JB=  3 J= 1445 IAn=  6 IBT=12 Dist= 1.33D+00
 I= 1465 IAn=  6 Valence= 5.
          JB=  1 J= 1466 IAn=  8 IBT= 2 Dist= 1.26D+00
          JB=  2 J= 1467 IAn=  8 IBT= 2 Dist= 1.25D+00
          JB=  3 J= 1462 IAn=  6 IBT= 1 Dist= 1.53D+00
 I= 1468 IAn=  6 Valence= 5.
          JB=  1 J= 1469 IAn=  8 IBT= 2 Dist= 1.23D+00
          JB=  2 J= 1470 IAn=  7 IBT=12 Dist= 1.34D+00
          JB=  3 J= 1460 IAn=  6 IBT= 1 Dist= 1.55D+00
 I= 1470 IAn=  7 Valence= 4.
          JB=  1 J= 1471 IAn=  1 IBT= 1 Dist= 1.01D+00
          JB=  2 J= 1472 IAn=  6 IBT= 1 Dist= 1.47D+00
          JB=  3 J= 1468 IAn=  6 IBT=12 Dist= 1.34D+00
 I= 1477 IAn=  6 Valence= 5.
          JB=  1 J= 1478 IAn=  8 IBT= 2 Dist= 1.25D+00
          JB=  2 J= 1479 IAn=  8 IBT= 2 Dist= 1.26D+00
          JB=  3 J= 1474 IAn=  6 IBT= 1 Dist= 1.53D+00
 I= 1480 IAn=  6 Valence= 5.
          JB=  1 J= 1481 IAn=  8 IBT= 2 Dist= 1.23D+00
          JB=  2 J= 1482 IAn=  7 IBT=22 Dist= 1.34D+00
          JB=  3 J= 1472 IAn=  6 IBT= 1 Dist= 1.53D+00
 I= 1482 IAn=  7 Valence= 4.
          JB=  1 J= 1483 IAn=  1 IBT= 1 Dist= 1.02D+00
          JB=  2 J= 1484 IAn=  6 IBT= 1 Dist= 1.47D+00
          JB=  3 J= 1480 IAn=  6 IBT=12 Dist= 1.34D+00
 I= 1499 IAn=  6 Valence= 5.
          JB=  1 J= 1500 IAn=  8 IBT= 2 Dist= 1.23D+00
          JB=  2 J= 1501 IAn=  7 IBT=22 Dist= 1.34D+00
          JB=  3 J= 1484 IAn=  6 IBT= 1 Dist= 1.53D+00
 I= 1501 IAn=  7 Valence= 4.
          JB=  1 J= 1502 IAn=  1 IBT= 1 Dist= 1.02D+00
          JB=  2 J= 1503 IAn=  6 IBT= 1 Dist= 1.47D+00
          JB=  3 J= 1499 IAn=  6 IBT=12 Dist= 1.34D+00
 I= 1517 IAn=  7 Valence= 4.
          JB=  1 J= 1518 IAn=  1 IBT= 1 Dist= 1.02D+00
          JB=  2 J= 1519 IAn=  1 IBT= 1 Dist= 1.02D+00
          JB=  3 J= 1520 IAn=  1 IBT= 1 Dist= 1.01D+00
          JB=  4 J= 1514 IAn=  6 IBT= 1 Dist= 1.48D+00
 I= 1521 IAn=  6 Valence= 5.
          JB=  1 J= 1522 IAn=  8 IBT= 2 Dist= 1.23D+00
          JB=  2 J= 1523 IAn=  7 IBT=22 Dist= 1.34D+00
          JB=  3 J= 1503 IAn=  6 IBT= 1 Dist= 1.54D+00
 I= 1523 IAn=  7 Valence= 4.
          JB=  1 J= 1524 IAn=  1 IBT= 1 Dist= 1.01D+00
          JB=  2 J= 1525 IAn=  6 IBT= 1 Dist= 1.46D+00
          JB=  3 J= 1521 IAn=  6 IBT=12 Dist= 1.34D+00
 I= 1528 IAn=  6 Valence= 5.
          JB=  1 J= 1529 IAn=  8 IBT= 2 Dist= 1.23D+00
          JB=  2 J= 1530 IAn=  7 IBT=22 Dist= 1.34D+00
          JB=  3 J= 1525 IAn=  6 IBT= 1 Dist= 1.53D+00
 I= 1530 IAn=  7 Valence= 4.
          JB=  1 J= 1531 IAn=  1 IBT= 1 Dist= 1.02D+00
          JB=  2 J= 1532 IAn=  6 IBT= 1 Dist= 1.48D+00
          JB=  3 J= 1528 IAn=  6 IBT=12 Dist= 1.34D+00
 I= 1559 IAn=  6 Valence= 5.
          JB=  1 J= 1560 IAn=  8 IBT= 2 Dist= 1.25D+00
          JB=  2 J= 1561 IAn=  8 IBT= 2 Dist= 1.25D+00
          JB=  3 J= 1556 IAn=  6 IBT= 1 Dist= 1.53D+00
 I= 1562 IAn=  6 Valence= 5.
          JB=  1 J= 1563 IAn=  8 IBT= 2 Dist= 1.24D+00
          JB=  2 J= 1564 IAn=  7 IBT=12 Dist= 1.34D+00
          JB=  3 J= 1551 IAn=  6 IBT= 1 Dist= 1.54D+00
 I= 1564 IAn=  7 Valence= 4.
          JB=  1 J= 1565 IAn=  1 IBT= 1 Dist= 1.02D+00
          JB=  2 J= 1566 IAn=  6 IBT= 1 Dist= 1.46D+00
          JB=  3 J= 1562 IAn=  6 IBT=12 Dist= 1.34D+00
 I= 1581 IAn=  6 Valence= 5.
          JB=  1 J= 1582 IAn=  8 IBT= 2 Dist= 1.24D+00
          JB=  2 J= 1583 IAn=  7 IBT=22 Dist= 1.34D+00
          JB=  3 J= 1566 IAn=  6 IBT= 1 Dist= 1.53D+00
 I= 1583 IAn=  7 Valence= 4.
          JB=  1 J= 1584 IAn=  1 IBT= 1 Dist= 1.02D+00
          JB=  2 J= 1585 IAn=  6 IBT= 1 Dist= 1.47D+00
          JB=  3 J= 1581 IAn=  6 IBT=12 Dist= 1.34D+00
 I= 1608 IAn=  6 Valence= 5.
          JB=  1 J= 1609 IAn=  1 IBT= 1 Dist= 1.09D+00
          JB=  2 J= 1610 IAn=  1 IBT= 1 Dist= 1.09D+00
          JB=  3 J= 1611 IAn= 16 IBT= 1 Dist= 1.86D+00
          JB=  4 J= 1612 IAn=  6 IBT=12 Dist= 1.42D+00
 I= 1612 IAn=  6 Valence= 5.
          JB=  1 J= 1613 IAn=  1 IBT= 1 Dist= 1.09D+00
          JB=  2 J= 1614 IAn=  6 IBT= 1 Dist= 1.52D+00
          JB=  3 J= 1608 IAn=  6 IBT=12 Dist= 1.42D+00
          JB=  4 J= 1611 IAn= 16 IBT= 1 Dist= 1.85D+00
 I= 1617 IAn= 16 Valence= 6.
          JB=  1 J= 1618 IAn=  8 IBT= 2 Dist= 1.44D+00
          JB=  2 J= 1619 IAn=  8 IBT= 2 Dist= 1.44D+00
          JB=  3 J= 1620 IAn=  6 IBT= 1 Dist= 1.77D+00
          JB=  4 J= 1614 IAn=  6 IBT= 1 Dist= 1.77D+00
 Read MM parameter file:
 Define ZN         1
 Define C0         2
 Include all MM classes
 Bondstretch undefined between atoms   1617   1618 S-O [H,H] *
 Bondstretch undefined between atoms   1617   1619 S-O [H,H] *
 Bondstretch undefined between atoms   1617   1620 S-CA [H,L]  
 Bondstretch undefined between atoms   1629   1630 CA-OS [L,L]  
 Bondstretch undefined between atoms   1630   1631 OS-CA [L,L]  
 Angle bend  undefined between atoms    504    506    507 N-CT-HC [L,L,L]  
 Angle bend  undefined between atoms    504    506    508 N-CT-HC [L,L,L]  
 Angle bend  undefined between atoms    584    586    587 N-CT-HC [L,L,L]  
 Angle bend  undefined between atoms    584    586    588 N-CT-HC [L,L,L]  
 Angle bend  undefined between atoms    710    712    713 N-CT-HC [L,L,L]  
 Angle bend  undefined between atoms    710    712    714 N-CT-HC [L,L,L]  
 Angle bend  undefined between atoms    731    733    734 N-CT-HC [L,L,L]  
 Angle bend  undefined between atoms    731    733    735 N-CT-HC [L,L,L]  
 Angle bend  undefined between atoms    754    756    757 N-CT-HC [L,L,L]  
 Angle bend  undefined between atoms    754    756    758 N-CT-HC [L,L,L]  
 Angle bend  undefined between atoms    761    763    764 N-CT-HC [L,L,L]  
 Angle bend  undefined between atoms    761    763    765 N-CT-HC [L,L,L]  
 Angle bend  undefined between atoms   1069   1071   1072 N-CT-HC [L,L,L]  
 Angle bend  undefined between atoms   1069   1071   1073 N-CT-HC [L,L,L]  
 Angle bend  undefined between atoms   1120   1122   1123 N-CT-HC [L,L,L]  
 Angle bend  undefined between atoms   1120   1122   1124 N-CT-HC [L,L,L]  
 Angle bend  undefined between atoms   1232   1234   1235 N-CT-HC [L,L,L]  
 Angle bend  undefined between atoms   1232   1234   1236 N-CT-HC [L,L,L]  
 Angle bend  undefined between atoms   1523   1525   1526 N-CT-HC [L,L,L]  
 Angle bend  undefined between atoms   1523   1525   1527 N-CT-HC [L,L,L]  
 Angle bend  undefined between atoms   1614   1617   1618 CT-S-O [H,H,H] *
 Angle bend  undefined between atoms   1614   1617   1619 CT-S-O [H,H,H] *
 Angle bend  undefined between atoms   1614   1617   1620 CT-S-CA [H,H,L]  
 Angle bend  undefined between atoms   1617   1620   1621 S-CA-CA [H,L,L]  
 Angle bend  undefined between atoms   1617   1620   1625 S-CA-CA [H,L,L]  
 Angle bend  undefined between atoms   1618   1617   1619 O-S-O [H,H,H] *
 Angle bend  undefined between atoms   1618   1617   1620 O-S-CA [H,H,L]  
 Angle bend  undefined between atoms   1619   1617   1620 O-S-CA [H,H,L]  
 Angle bend  undefined between atoms   1622   1629   1630 CA-CA-OS [L,L,L]  
 Angle bend  undefined between atoms   1627   1629   1630 CA-CA-OS [L,L,L]  
 Angle bend  undefined between atoms   1629   1630   1631 CA-OS-CA [L,L,L]  
 Angle bend  undefined between atoms   1630   1631   1632 OS-CA-CA [L,L,L]  
 Angle bend  undefined between atoms   1630   1631   1640 OS-CA-CA [L,L,L]  
 * These undefined terms cancel in the ONIOM expression.
 MM function not complete
 Error termination via Lnk1e in XXXXXXX/x86_64/g09a02/g09/l101.exe at Fri Nov  6 16:59:56 2009.
 Job cpu time:  0 days  0 hours  0 minutes  1.8 seconds.
 File lengths (MBytes):  RWF=      5 Int=      0 D2E=      0 Chk=      1 Scr=      1
