 Entering Gaussian System, Link 0=XXXXXXX/x86_64/g09a02/g09/g09
 Initial command:
 XXXXXXX/x86_64/g09a02/g09/l1.exe /tmp/pbs.183397.pbs/Gau-10900.inp -scrdir=/tmp/pbs.183397.pbs/
 Entering Link 1 = XXXXXXX/x86_64/g09a02/g09/l1.exe PID=     10909.
  
 Copyright (c) 1988,1990,1992,1993,1995,1998,2003,2009, Gaussian, Inc.
                  All Rights Reserved.
  
 This is part of the Gaussian(R) 09 program.  It is based on
 the Gaussian(R) 03 system (copyright 2003, Gaussian, Inc.),
 the Gaussian(R) 98 system (copyright 1998, Gaussian, Inc.),
 the Gaussian(R) 94 system (copyright 1995, Gaussian, Inc.),
 the Gaussian 92(TM) system (copyright 1992, Gaussian, Inc.),
 the Gaussian 90(TM) system (copyright 1990, Gaussian, Inc.),
 the Gaussian 88(TM) system (copyright 1988, Gaussian, Inc.),
 the Gaussian 86(TM) system (copyright 1986, Carnegie Mellon
 University), and the Gaussian 82(TM) system (copyright 1983,
 Carnegie Mellon University). Gaussian is a federally registered
 trademark of Gaussian, Inc.
  
 This software contains proprietary and confidential information,
 including trade secrets, belonging to Gaussian, Inc.
  
 This software is provided under written license and may be
 used, copied, transmitted, or stored only in accord with that
 written license.
  
 The following legend is applicable only to US Government
 contracts under FAR:
  
                    RESTRICTED RIGHTS LEGEND
  
 Use, reproduction and disclosure by the US Government is
 subject to restrictions as set forth in subparagraphs (a)
 and (c) of the Commercial Computer Software - Restricted
 Rights clause in FAR 52.227-19.
  
 Gaussian, Inc.
 340 Quinnipiac St., Bldg. 40, Wallingford CT 06492
  
  
 ---------------------------------------------------------------
 Warning -- This program may not be used in any manner that
 competes with the business of Gaussian, Inc. or will provide
 assistance to any competitor of Gaussian, Inc.  The licensee
 of this program is prohibited from giving any competitor of
 Gaussian, Inc. access to this program.  By using this program,
 the user acknowledges that Gaussian, Inc. is engaged in the
 business of creating and licensing software in the field of
 computational chemistry and represents and warrants to the
 licensee that it is not a competitor of Gaussian, Inc. and that
 it will not use this program in any manner prohibited above.
 ---------------------------------------------------------------
  

 Cite this work as:
 Gaussian 09, Revision A.02,
 M. J. Frisch, G. W. Trucks, H. B. Schlegel, G. E. Scuseria, 
 M. A. Robb, J. R. Cheeseman, G. Scalmani, V. Barone, B. Mennucci, 
 G. A. Petersson, H. Nakatsuji, M. Caricato, X. Li, H. P. Hratchian, 
 A. F. Izmaylov, J. Bloino, G. Zheng, J. L. Sonnenberg, M. Hada, 
 M. Ehara, K. Toyota, R. Fukuda, J. Hasegawa, M. Ishida, T. Nakajima, 
 Y. Honda, O. Kitao, H. Nakai, T. Vreven, J. A. Montgomery, Jr., 
 J. E. Peralta, F. Ogliaro, M. Bearpark, J. J. Heyd, E. Brothers, 
 K. N. Kudin, V. N. Staroverov, R. Kobayashi, J. Normand, 
 K. Raghavachari, A. Rendell, J. C. Burant, S. S. Iyengar, J. Tomasi, 
 M. Cossi, N. Rega, J. M. Millam, M. Klene, J. E. Knox, J. B. Cross, 
 V. Bakken, C. Adamo, J. Jaramillo, R. Gomperts, R. E. Stratmann, 
 O. Yazyev, A. J. Austin, R. Cammi, C. Pomelli, J. W. Ochterski, 
 R. L. Martin, K. Morokuma, V. G. Zakrzewski, G. A. Voth, 
 P. Salvador, J. J. Dannenberg, S. Dapprich, A. D. Daniels, 
 O. Farkas, J. B. Foresman, J. V. Ortiz, J. Cioslowski, 
 and D. J. Fox, Gaussian, Inc., Wallingford CT, 2009.
 
 ******************************************
 Gaussian 09:  AM64L-G09RevA.02 11-Jun-2009
                 6-Nov-2009 
 ******************************************
 %chk=mmp2_partial_r_06_02.chk
 %mem=3000MB
 %nprocshared=4
 Will use up to    4 processors via shared memory.
 ----------------------------------------------------------------------
 #p oniom(pm3:amber=hardfirst) nosymm geom=connectivity iop(2/15=3) tes
 t opt=quadmac
 ----------------------------------------------------------------------
 1/14=-1,18=1000020,38=1,52=2,56=2,57=2,64=103,98=5,115=4/1,3;
 2/9=110,12=2,15=3,17=6,18=5,40=1/2;
 1/14=-1,18=1000020,38=1,52=2,53=3172,64=103,98=5,115=4/20;
 3/5=30,11=9,16=1,25=1,30=1,41=10300000,43=2,71=1/1;
 4/20=11,22=1,24=3,112=4/2;
 7/7=1,30=1,33=-1,44=-1,88=4/16;
 1/14=-1,18=1000020,52=2,53=2032,98=5,115=4/20;
 3/5=2,16=1,25=1,41=800000,71=1/1,2,3;
 4/35=1,112=4/1;
 5/5=2,35=1,38=5/2;
 6/7=2,8=2,9=2,10=2,28=1/1;
 7/7=1,30=1,33=-1,88=4/1,2,3,16;
 1/14=-1,18=1000020,52=2,53=1022,64=103,98=5,115=4/20;
 3/5=30,11=9,16=1,25=1,30=1,41=10300000,43=2,71=1/1;
 4/20=11,22=1,24=3,112=4/2;
 7/7=1,30=1,33=-1,44=-1,88=4/16;
 1/14=-1,18=1000020,52=2,53=3015,64=103,98=5,115=4/20;
 7/9=1,44=-1,88=4/16;
 1/14=-1,18=1000020,52=2,64=103,98=5,115=4/3(2);
 2/9=110,15=3/2;
 99//99;
 2/9=110,15=3/2;
 1/14=-1,18=1000020,52=2,53=3173,64=103,98=5,115=4/20;
 3/5=30,11=9,16=1,25=1,30=1,41=10300000,43=2,71=1/1;
 4/16=2,20=11,22=1,24=3,112=4/2;
 7/7=1,30=1,33=-1,44=-1,88=4/16;
 1/14=-1,18=1000020,52=2,53=2033,98=5,115=4/20;
 3/5=2,16=1,25=1,41=800000,71=1,135=20/1,2,3;
 4/5=5,16=3,35=1,112=4/1;
 5/5=2,35=1,38=5/2;
 7/7=1,30=1,33=-1,88=4/1,2,3,16;
 1/14=-1,18=1000020,52=2,53=1023,64=103,98=5,115=4/20;
 3/5=30,11=9,16=1,25=1,30=1,41=10300000,43=2,71=1/1;
 4/16=2,20=11,22=1,24=3,112=4/2;
 7/7=1,30=1,33=-1,44=-1,88=4/16;
 1/14=-1,18=1000020,52=2,53=3015,64=103,98=5,115=4/20;
 7/9=1,44=-1,88=4/16;
 1/14=-1,18=1000020,52=2,64=103,98=5,115=4/3(-16);
 2/9=110,15=3/2;
 99//99;
 Leave Link    1 at Fri Nov  6 17:05:20 2009, MaxMem=  393216000 cpu:       0.1
 (Enter XXXXXXX/x86_64/g09a02/g09/l101.exe)
 ------------------
 MMP2 reduced model
 ------------------
 Symbolic Z-matrix:
 Charge = -3 Multiplicity = 1 for low   level calculation on real  system.
 Charge =  1 Multiplicity = 1 for high  level calculation on model system.
 Charge =  1 Multiplicity = 1 for low   level calculation on model system.
 N-N3-0.096600        -1    41.507    23.202    52.275   L 
 H-H-0.216500         -1    40.56     22.841    52.249   L 
 H-H-0.216500         -1    41.687    23.653    51.384   L 
 H-H-0.216500         -1    41.559    23.902    53.006   L 
 C-CT--0.001500       -1    42.49     22.115    52.511   L 
 H-HP-0.118000        -1    42.377    21.793    53.546   L 
 C-CT-0.021200        -1    42.207    20.897    51.605   L 
 H-HC-0.028300        -1    42.875    20.087    51.897   L 
 H-HC-0.028300        -1    41.186    20.562    51.79    L 
 C-CT--0.004800       -1    42.384    21.151    50.096   L 
 H-HC-0.012100        -1    41.676    21.906    49.762   L 
 H-HC-0.012100        -1    43.392    21.52     49.916   L 
 C-CT--0.060800       -1    42.18     19.886    49.249   L 
 H-HC-0.063300        -1    42.584    20.065    48.25    L 
 H-HC-0.063300        -1    42.734    19.064    49.698   L 
 C-CT--0.018100       -1    40.698    19.515    49.121   L 
 H-HP-0.117100        -1    40.248    19.462    50.116   L 
 H-HP-0.117100        -1    40.19     20.309    48.565   L 
 N-N3--0.376400       -1    40.518    18.22     48.426   L 
 H-H-0.338200         -1    40.883    17.447    48.979   L 
 H-H-0.338200         -1    39.534    18.043    48.246   L 
 H-H-0.338200         -1    41.008    18.201    47.53    L 
 C-C-0.721400         -1    43.921    22.648    52.362   L 
 O-O--0.601300        -1    44.09     23.607    51.612   L 
 N-N--0.088116        -1    44.936    22.076    53.043   L 
 C-CT--0.011906       -1    44.826    20.973    53.991   L 
 H-H1-0.043951        -1    44.423    20.075    53.524   L 
 H-H1-0.043950        -1    44.198    21.278    54.831   L 
 C-CT-0.013059        -1    46.247    20.707    54.489   L 
 H-HC-0.019574        -1    46.75     20.01     53.819   L 
 H-HC-0.019574        -1    46.254    20.333    55.513   L 
 C-CT--0.003351       -1    46.91     22.076    54.379   L 
 H-HC-0.019352        -1    47.996    21.998    54.305   L 
 H-HC-0.019352        -1    46.634    22.682    55.244   L 
 C-CT--0.034577       -1    46.275    22.67     53.118   L 
 H-H1-0.059977        -1    46.188    23.749    53.251   L 
 C-C-0.333720         -1    47.155    22.432    51.883   L 
 O-O--0.434559        -1    48.162    23.116    51.736   L 
 N-N--0.435875        -1    46.797    21.503    50.987   L 
 H-H-0.251302         -1    45.969    20.949    51.15    L 
 C-CT--0.038773       -1    47.519    21.252    49.729   L 
 H-H1-0.129478        -1    48.072    22.15     49.451   L 
 C-CT--0.108273       -1    48.518    20.082    49.892   L 
 H-HC-0.045214        -1    47.957    19.154    50.019   L 
 H-HC-0.045214        -1    49.105    20.       48.976   L 
 C-CT-0.033341        -1    49.48     20.234    51.083   L 
 H-HC-0.010208        -1    49.973    21.204    51.022   L 
 H-HC-0.010208        -1    48.898    20.19     52.004   L 
 C-CT--0.047841       -1    50.557    19.138    51.131   L 
 H-HC-0.070715        -1    50.143    18.194    50.775   L 
 H-HC-0.070715        -1    51.386    19.419    50.48    L 
 C-CT--0.069974       -1    51.039    18.962    52.579   L 
 H-HP-0.119522        -1    51.419    19.915    52.958   L 
 H-HP-0.119522        -1    50.183    18.679    53.198   L 
 N-N3--0.250358       -1    52.083    17.921    52.712   L 
 H-H-0.294561         -1    52.337    17.79     53.69    L 
 H-H-0.294561         -1    51.764    17.016    52.371   L 
 H-H-0.294561         -1    52.916    18.155    52.196   L 
 C-C-0.725129         -1    46.525    20.941    48.598   L 
 O-O--0.563157        -1    45.479    20.336    48.844   L 
 N-N--0.427579        0     46.848    21.318    47.358   L 
 H-H-0.241716         0     47.713    21.817    47.211   L 
 C-CT--0.020082       0     46.044    20.959    46.181   L 
 H-H1-0.106629        0     45.011    21.273    46.351   L 
 C-CT--0.098364       0     46.577    21.719    44.953   L 
 H-HC-0.065424        0     47.63     21.476    44.804   L 
 H-HC-0.065424        0     46.035    21.38     44.07    L 
 C-C*--0.099797       0     46.432    23.21     45.028   L 
 C-CW--0.174053       0     47.38     24.075    45.456   L 
 H-H4-0.170633        0     48.374    23.799    45.786   L 
 N-NA--0.298433       0     46.871    25.359    45.452   L 
 H-H-0.322375         0     47.353    26.169    45.839   L 
 C-CN-0.141523        0     45.569    25.391    45.013   L 
 C-CA--0.210701       0     44.636    26.428    44.87    L 
 H-HA-0.125512        0     44.915    27.44     45.123   L 
 C-CA--0.133022       0     43.347    26.128    44.399   L 
 H-HA-0.119467        0     42.614    26.914    44.278   L 
 C-CA--0.164054       0     43.019    24.801    44.071   L 
 H-HA-0.119250        0     42.033    24.571    43.69    L 
 C-CA--0.153992       0     43.963    23.768    44.226   L 
 H-HA-0.123084        0     43.692    22.757    43.969   L 
 C-CB-0.089641        0     45.262    24.031    44.712   L 
 C-C-0.584129         0     46.033    19.434    45.948   L 
 O-O--0.494730        0     47.009    18.743    46.249   L 
 N-N--0.558201        -1    44.957    18.904    45.366   L 
 H-H-0.319676         -1    44.181    19.53     45.154   L 
 C-CT-0.007225        -1    44.814    17.48     44.999   L 
 H-H1-0.082375        -1    45.109    16.861    45.847   L 
 C-CT--0.047555       -1    43.337    17.179    44.686   L 
 H-HC--0.014836       -1    43.033    17.765    43.816   L 
 H-HC--0.014836       -1    43.239    16.124    44.428   L 
 C-C-0.745168         -1    42.394    17.476    45.856   L 
 O-O2--0.730385       -1    42.595    16.918    46.96    L 
 O-O2--0.730385       -1    41.443    18.276    45.676   L 
 C-C-0.443199         -1    45.69     17.071    43.793   L 
 O-O--0.501445        -1    45.922    15.884    43.55    L 
 N-N--0.451047        -1    47.71     23.806    37.859   L 
 H-H-0.328831         -1    48.514    24.191    37.362   L 
 C-CT--0.101874       -1    46.75     24.785    38.403   L 
 H-H1-0.174193        -1    45.873    24.278    38.809   L 
 C-CT-0.062238        -1    47.445    25.575    39.545   L 
 H-HC-0.061662        -1    48.313    26.063    39.104   L 
 C-CT--0.129989       -1    46.55     26.682    40.131   L 
 H-HC-0.030227        -1    47.05     27.158    40.975   L 
 H-HC-0.030227        -1    46.351    27.451    39.385   L 
 H-HC-0.030227        -1    45.607    26.26     40.475   L 
 C-CT-0.022230        -1    47.985    24.686    40.695   L 
 H-HC-0.011551        -1    48.703    23.97     40.296   L 
 H-HC-0.011551        -1    48.536    25.318    41.392   L 
 C-CT--0.101251       -1    46.925    23.915    41.495   L 
 H-HC-0.023792        -1    46.332    23.28     40.841   L 
 H-HC-0.023792        -1    47.424    23.286    42.233   L 
 H-HC-0.023792        -1    46.267    24.609    42.018   L 
 C-C-0.569383         -1    46.261    25.712    37.276   L 
 O-O--0.619535        -1    47.019    26.012    36.347   L 
 N-N--0.487560        -1    44.084    29.484    36.229   L 
 H-H-0.263521         -1    44.423    29.382    35.277   L 
 C-CT-0.009614        -1    43.679    30.82     36.679   L 
 H-H1-0.095501        -1    43.034    30.689    37.542   L 
 C-CT--0.051853       -1    44.903    31.616    37.158   L 
 H-HC-0.019145        -1    44.549    32.465    37.744   L 
 H-HC-0.019145        -1    45.483    30.992    37.839   L 
 C-CA-0.112601        -1    45.831    32.146    36.08    L 
 C-CA--0.183461       -1    46.877    31.341    35.587   L 
 H-HA-0.132715        -1    46.981    30.323    35.933   L 
 C-CA--0.181823       -1    47.809    31.873    34.675   L 
 H-HA-0.137303        -1    48.634    31.273    34.32    L 
 C-C-0.206277         -1    47.698    33.216    34.256   L 
 O-OH--0.421233       -1    48.642    33.75     33.437   L 
 H-HO-0.329691        -1    48.548    34.711    33.348   L 
 C-CA--0.181823       -1    46.631    34.015    34.726   L 
 H-HA-0.137303        -1    46.547    35.043    34.407   L 
 C-CA--0.183461       -1    45.7      33.477    35.635   L 
 H-HA-0.132715        -1    44.905    34.1      36.017   L 
 C-C-0.622290         -1    42.848    31.585    35.64    L 
 O-O--0.526607        -1    42.881    31.276    34.447   L 
 N-N--0.451047        -1    40.971    35.829    34.977   L 
 H-H-0.328831         -1    41.072    35.639    33.981   L 
 C-CT--0.101874       -1    40.839    37.233    35.425   L 
 H-H1-0.174193        -1    40.862    37.263    36.514   L 
 C-CT-0.062238        -1    42.017    38.108    34.915   L 
 H-HC-0.061662        -1    41.886    38.269    33.843   L 
 C-CT--0.129989       -1    41.957    39.476    35.628   L 
 H-HC-0.030227        -1    42.759    40.125    35.283   L 
 H-HC-0.030227        -1    41.019    39.983    35.407   L 
 H-HC-0.030227        -1    42.05     39.346    36.707   L 
 C-CT-0.022230        -1    43.401    37.441    35.131   L 
 H-HC-0.011551        -1    43.564    37.276    36.195   L 
 H-HC-0.011551        -1    43.416    36.471    34.634   L 
 C-CT--0.101251       -1    44.592    38.233    34.57    L 
 H-HC-0.023792        -1    45.493    37.621    34.633   L 
 H-HC-0.023792        -1    44.412    38.489    33.526   L 
 H-HC-0.023792        -1    44.756    39.143    35.147   L 
 C-C-0.569383         -1    39.48     37.803    34.993   L 
 O-O--0.619535        -1    39.092    37.657    33.835   L 
 N-N--0.450087        -1    49.081    44.487    34.36    L 
 H-H-0.440048         -1    48.475    45.11     33.83    L 
 C-CT--0.051858       -1    48.49     43.721    35.476   L 
 H-H1--0.026204       -1    49.081    43.916    36.373   L 
 C-CT-0.395217        -1    47.036    44.185    35.743   L 
 H-HC--0.115672       -1    46.516    44.238    34.79    L 
 C-CT--0.090132       -1    46.231    43.236    36.646   L 
 H-HC--0.008985       -1    46.777    43.039    37.567   L 
 H-HC--0.008985       -1    45.265    43.679    36.89    L 
 H-HC--0.008985       -1    46.046    42.297    36.125   L 
 C-CT--0.090132       -1    47.013    45.593    36.363   L 
 H-HC--0.008985       -1    47.49     45.581    37.341   L 
 H-HC--0.008985       -1    47.541    46.297    35.724   L 
 H-HC--0.008985       -1    45.983    45.934    36.472   L 
 C-C-0.447359         -1    48.541    42.209    35.191   L 
 O-O--0.404629        -1    48.955    41.431    36.048   L 
 N-N--0.404773        -1    52.165    41.01     35.609   L 
 H-H-0.294276         -1    51.397    41.63     35.367   L 
 C-CT--0.027733       -1    52.528    40.877    37.021   L 
 H-H1-0.120802        -1    53.609    40.987    37.12    L 
 C-CT--0.229951       -1    51.842    42.002    37.813   L 
 H-HC-0.077428        -1    50.76     41.947    37.699   L 
 H-HC-0.077428        -1    52.07     41.903    38.873   L 
 H-HC-0.077428        -1    52.184    42.975    37.461   L 
 C-C-0.570224         -1    52.157    39.497    37.59    L 
 O-O--0.555129        -1    52.975    38.868    38.266   L 
 N-N--0.371290        0     50.951    38.998    37.292   L 
 H-H-0.234053         0     50.31     39.564    36.748   L 
 C-CT--0.030057       0     50.516    37.678    37.754   L 
 H-H1-0.102448        0     50.678    37.626    38.831   L 
 C-CT--0.098720       0     49.014    37.489    37.487   L 
 H-HC-0.060989        0     48.833    37.575    36.414   L 
 H-HC-0.060989        0     48.735    36.477    37.787   L 
 C-CA-0.021313        0     48.111    38.458    38.235   L 
 C-CA--0.083109       0     48.242    38.624    39.63    L 
 H-HA-0.098466        0     48.98     38.061    40.182   L 
 C-CA--0.156974       0     47.416    39.529    40.318   L 
 H-HA-0.123731        0     47.531    39.662    41.384   L 
 C-CA--0.099824       0     46.44     40.261    39.622   L 
 H-HA-0.114679        0     45.802    40.954    40.153   L 
 C-CA--0.156974       0     46.291    40.084    38.236   L 
 H-HA-0.123731        0     45.532    40.635    37.701   L 
 C-CA--0.083109       0     47.128    39.19     37.543   L 
 H-HA-0.098466        0     47.015    39.075    36.475   L 
 C-C-0.547987         0     51.355    36.546    37.149   L 
 O-O--0.506795        0     51.694    35.605    37.863   L 
 N-N--0.404773        -1    51.777    36.664    35.882   L 
 H-H-0.294276         -1    51.463    37.461    35.341   L 
 C-CT--0.027733       -1    52.702    35.712    35.258   L 
 H-H1-0.120802        -1    52.243    34.721    35.265   L 
 C-CT--0.229951       -1    52.918    36.128    33.796   L 
 H-HC-0.077428        -1    53.576    35.409    33.306   L 
 H-HC-0.077428        -1    51.963    36.144    33.269   L 
 H-HC-0.077428        -1    53.374    37.117    33.743   L 
 C-C-0.570224         -1    54.03     35.591    36.035   L 
 O-O--0.555129        -1    54.484    34.48     36.313   L 
 N-N--0.300879        -1    54.61     36.72     36.469   L 
 H-H-0.233693         -1    54.179    37.602    36.226   L 
 C-CT--0.131381       -1    55.815    36.736    37.315   L 
 H-H1-0.053266        -1    56.611    36.201    36.794   L 
 C-CT-0.036707        -1    56.286    38.179    37.555   L 
 H-HC-0.028012        -1    55.461    38.777    37.936   L 
 H-HC-0.028012        -1    57.071    38.173    38.311   L 
 C-CT-0.012454        -1    56.834    38.822    36.274   L 
 H-HC-0.002964        -1    57.77     38.342    35.993   L 
 H-HC-0.002964        -1    56.121    38.674    35.466   L 
 C-CT-0.126329        -1    57.055    40.329    36.426   L 
 H-H1-0.068148        -1    57.356    40.729    35.458   L 
 H-H1-0.068148        -1    56.11     40.795    36.712   L 
 N-N2--0.464890       -1    58.095    40.66     37.411   L 
 H-H-0.326274         -1    58.689    39.897    37.732   L 
 C-CA-0.565543        -1    58.418    41.887    37.798   L 
 N-N2--0.685774       -1    57.764    42.939    37.353   L 
 H-H-0.391052         -1    57.045    42.821    36.648   L 
 H-H-0.391052         -1    58.062    43.878    37.591   L 
 N-N2--0.685774       -1    59.415    42.07     38.633   L 
 H-H-0.391052         -1    59.979    41.288    38.952   L 
 H-H-0.391052         -1    59.687    43.006    38.918   L 
 C-C-0.730308         -1    55.583    36.024    38.654   L 
 O-O--0.578332        -1    56.375    35.165    39.045   L 
 N-N--0.404773        -1    54.472    36.313    39.337   L 
 H-H-0.294276         -1    53.85     37.024    38.97    L 
 C-CT--0.027733       -1    54.122    35.653    40.598   L 
 H-H1-0.120802        -1    54.942    35.808    41.304   L 
 C-CT--0.229951       -1    52.876    36.338    41.17    L 
 H-HC-0.077428        -1    52.028    36.2      40.499   L 
 H-HC-0.077428        -1    52.638    35.912    42.145   L 
 H-HC-0.077428        -1    53.062    37.406    41.295   L 
 C-C-0.570224         -1    53.966    34.121    40.454   L 
 O-O--0.555129        -1    54.456    33.381    41.307   L 
 N-N--0.371290        -1    53.378    33.63     39.354   L 
 H-H-0.234053         -1    52.944    34.276    38.703   L 
 C-CT--0.030057       -1    53.332    32.195    39.044   L 
 H-H1-0.102448        -1    52.987    31.665    39.933   L 
 C-CT--0.098720       -1    52.336    31.932    37.902   L 
 H-HC-0.060989        -1    52.608    32.547    37.042   L 
 H-HC-0.060989        -1    52.432    30.891    37.592   L 
 C-CA-0.021313        -1    50.876    32.166    38.254   L 
 C-CA--0.083109       -1    50.31     31.541    39.383   L 
 H-HA-0.098466        -1    50.909    30.89     40.004   L 
 C-CA--0.156974       -1    48.961    31.755    39.712   L 
 H-HA-0.123731        -1    48.544    31.289    40.591   L 
 C-CA--0.099824       -1    48.165    32.593    38.913   L 
 H-HA-0.114679        -1    47.13     32.767    39.173   L 
 C-CA--0.156974       -1    48.724    33.215    37.784   L 
 H-HA-0.123731        -1    48.117    33.863    37.169   L 
 C-CA--0.083109       -1    50.071    32.992    37.447   L 
 H-HA-0.098466        -1    50.486    33.467    36.57    L 
 C-C-0.547987         -1    54.711    31.604    38.709   L 
 O-O--0.506795        -1    55.004    30.48     39.119   L 
 N-N--0.387353        -1    55.579    32.339    38.004   L 
 H-H-0.300605         -1    55.259    33.224    37.622   L 
 C-CT-0.037470        -1    56.966    31.926    37.751   L 
 H-H1-0.152255        -1    56.979    30.935    37.293   L 
 C-CT--0.032112       -1    57.641    32.909    36.783   L 
 H-HC-0.030995        -1    57.468    33.928    37.124   L 
 H-HC-0.030995        -1    58.717    32.736    36.794   L 
 C-CT--0.020264       -1    57.153    32.77     35.332   L 
 H-HC-0.030791        -1    57.544    31.849    34.899   L 
 H-HC-0.030791        -1    56.066    32.713    35.312   L 
 C-C-0.667812         -1    57.601    33.955    34.476   L 
 O-O--0.628483        -1    58.645    34.559    34.682   L 
 N-N--0.883393        -1    56.838    34.366    33.494   L 
 H-H-0.408312         -1    57.134    35.207    33.009   L 
 H-H-0.408312         -1    55.99     33.86     33.262   L 
 C-C-0.418577         -1    57.774    31.816    39.054   L 
 O-O--0.565310        -1    58.429    30.797    39.266   L 
 N-N--0.450087        -1    57.703    32.806    39.951   L 
 H-H-0.440048         -1    57.185    33.651    39.702   L 
 C-CT--0.051858       -1    58.414    32.773    41.248   L 
 H-H1--0.026204       -1    59.482    32.709    41.031   L 
 C-CT-0.395217        -1    58.179    34.07     42.062   L 
 H-HC--0.115672       -1    57.109    34.288    42.069   L 
 C-CT--0.090132       -1    58.66     33.98     43.523   L 
 H-HC--0.008985       -1    58.07     33.247    44.075   L 
 H-HC--0.008985       -1    59.712    33.693    43.556   L 
 H-HC--0.008985       -1    58.538    34.945    44.015   L 
 C-CT--0.090132       -1    58.905    35.254    41.396   L 
 H-HC--0.008985       -1    59.984    35.094    41.423   L 
 H-HC--0.008985       -1    58.596    35.361    40.357   L 
 H-HC--0.008985       -1    58.669    36.178    41.923   L 
 C-C-0.447359         -1    58.037    31.526    42.064   L 
 O-O--0.404629        -1    58.922    30.806    42.525   L 
 N-N--0.427579        0     56.739    31.213    42.188   L 
 H-H-0.241716         0     56.038    31.851    41.83    L 
 C-CT--0.020082       0     56.294    30.002    42.887   L 
 H-H1-0.106629        0     56.882    29.914    43.801   L 
 C-CT--0.098364       0     54.823    30.16     43.304   L 
 H-HC-0.065424        0     54.237    30.512    42.453   L 
 H-HC-0.065424        0     54.434    29.18     43.585   L 
 C-C*--0.099797       0     54.606    31.072    44.482   L 
 C-CW--0.174053       0     53.885    32.217    44.487   L 
 H-H4-0.170633        0     53.374    32.624    43.624   L 
 N-NA--0.298433       0     53.919    32.789    45.748   L 
 H-H-0.322375         0     53.461    33.66     45.999   L 
 C-CN-0.141523        0     54.689    32.049    46.615   L 
 C-CA--0.210701       0     55.045    32.223    47.96    L 
 H-HA-0.125512        0     54.677    33.076    48.51    L 
 C-CA--0.133022       0     55.896    31.288    48.57    L 
 H-HA-0.119467        0     56.199    31.42     49.6     L 
 C-CA--0.164054       0     56.361    30.184    47.834   L 
 H-HA-0.119250        0     57.032    29.477    48.298   L 
 C-CA--0.153992       0     55.976    30.005    46.491   L 
 H-HA-0.123084        0     56.343    29.152    45.941   L 
 C-CB-0.089641        0     55.139    30.939    45.839   L 
 C-C-0.584129         0     56.558    28.697    42.106   L 
 O-O--0.494730        0     56.663    27.633    42.72    L 
 N-N--0.541430        -1    56.738    28.742    40.781   L 
 H-H-0.345415         -1    56.72     29.652    40.333   L 
 C-CT-0.118140        -1    57.151    27.564    39.99    L 
 H-H1-0.142177        -1    56.471    26.734    40.19    L 
 C-CT-0.146998        -1    57.108    27.849    38.477   L 
 H-H1-0.040081        -1    57.799    28.655    38.235   L 
 H-H1-0.040081        -1    57.443    26.957    37.946   L 
 O-OH--0.640312       -1    55.807    28.185    38.012   L 
 H-HO-0.446255        -1    55.487    28.955    38.525   L 
 C-C-0.483424         -1    58.568    27.093    40.37    L 
 O-O--0.580829        -1    58.814    25.894    40.484   L 
 N-N--0.450087        -1    60.198    26.665    42.973   L 
 H-H-0.440048         -1    59.325    27.085    42.675   L 
 C-CT--0.051858       -1    60.268    26.004    44.293   L 
 H-H1--0.026204       -1    61.202    25.443    44.333   L 
 C-CT-0.395217        -1    60.305    27.054    45.434   L 
 H-HC--0.115672       -1    60.343    26.528    46.388   L 
 C-CT--0.090132       -1    61.572    27.921    45.356   L 
 H-HC--0.008985       -1    61.61     28.58     46.219   L 
 H-HC--0.008985       -1    62.459    27.285    45.36    L 
 H-HC--0.008985       -1    61.57     28.533    44.454   L 
 C-CT--0.090132       -1    59.059    27.959    45.436   L 
 H-HC--0.008985       -1    58.158    27.355    45.521   L 
 H-HC--0.008985       -1    59.095    28.634    46.29    L 
 H-HC--0.008985       -1    59.009    28.55     44.522   L 
 C-C-0.447359         -1    59.147    24.97     44.524   L 
 O-O--0.404629        -1    58.951    24.51     45.652   L 
 N-N--0.245382        -1    58.412    24.592    43.465   L 
 H-H-0.255339         -1    58.664    24.951    42.55    L 
 C-CT--0.271249       -1    57.315    23.606    43.499   L 
 H-H1-0.163757        -1    57.455    22.948    44.355   L 
 C-CT-0.237868        -1    55.945    24.295    43.644   L 
 H-H1-0.044688        -1    55.17     23.534    43.68    L 
 C-CT--0.176489       -1    55.784    25.143    44.902   L 
 H-HC-0.060019        -1    56.016    24.54     45.778   L 
 H-HC-0.060019        -1    56.449    26.004    44.872   L 
 H-HC-0.060019        -1    54.754    25.494    44.974   L 
 O-OH--0.601931       -1    55.698    25.089    42.516   L 
 H-HO-0.405484        -1    56.076    25.971    42.676   L 
 C-C-0.559878         -1    57.332    22.742    42.228   L 
 O-O--0.552020        -1    57.958    23.135    41.24    L 
 N-N--0.355153        -1    54.413    22.694    40.861   L 
 H-H-0.262417         -1    54.811    23.078    41.708   L 
 C-CT--0.101497       -1    53.173    23.299    40.379   L 
 H-H1-0.136951        -1    52.513    22.5      40.05    L 
 C-CT--0.144399       -1    52.476    24.076    41.516   L 
 H-HC-0.052533        -1    53.126    24.895    41.829   L 
 H-HC-0.052533        -1    51.564    24.523    41.115   L 
 C-CT-0.191982        -1    52.103    23.234    42.757   L 
 H-HC-0.000825        -1    53.011    22.819    43.196   L 
 C-CT--0.123036       -1    51.443    24.132    43.81    L 
 H-HC-0.022376        -1    50.535    24.585    43.408   L 
 H-HC-0.022376        -1    51.188    23.545    44.693   L 
 H-HC-0.022376        -1    52.138    24.917    44.106   L 
 C-CT--0.123036       -1    51.164    22.068    42.413   L 
 H-HC-0.022376        -1    51.683    21.353    41.777   L 
 H-HC-0.022376        -1    50.863    21.553    43.326   L 
 H-HC-0.022376        -1    50.274    22.436    41.901   L 
 C-C-0.573471         -1    53.436    24.196    39.166   L 
 O-O--0.557847        -1    54.392    24.971    39.147   L 
 N-N--0.371290        -1    51.245    26.442    35.747   L 
 H-H-0.234053         -1    52.121    26.774    35.36    L 
 C-CT--0.030057       -1    50.119    27.38     35.72    L 
 H-H1-0.102448        -1    49.237    26.907    36.146   L 
 C-CT--0.098720       -1    50.481    28.606    36.581   L 
 H-HC-0.060989        -1    51.312    29.135    36.109   L 
 H-HC-0.060989        -1    49.633    29.294    36.587   L 
 C-CA-0.021313        -1    50.862    28.3      38.02    L 
 C-CA--0.083109       -1    52.207    28.06     38.365   L 
 H-HA-0.098466        -1    52.977    28.102    37.609   L 
 C-CA--0.156974       -1    52.554    27.754    39.693   L 
 H-HA-0.123731        -1    53.587    27.558    39.949   L 
 C-CA--0.099824       -1    51.561    27.698    40.685   L 
 H-HA-0.114679        -1    51.83     27.464    41.706   L 
 C-CA--0.156974       -1    50.219    27.954    40.348   L 
 H-HA-0.123731        -1    49.455    27.921    41.11    L 
 C-CA--0.083109       -1    49.871    28.257    39.019   L 
 H-HA-0.098466        -1    48.841    28.461    38.766   L 
 C-C-0.547987         -1    49.793    27.833    34.293   L 
 O-O--0.506795        -1    50.696    28.089    33.499   L 
 N-N--0.558201        -1    40.78     27.317    39.357   L 
 H-H-0.319676         -1    41.294    27.013    38.537   L 
 C-CT-0.007225        -1    41.377    27.095    40.679   L 
 H-H1-0.082375        -1    40.666    26.548    41.301   L 
 C-CT--0.047555       -1    42.656    26.25     40.589   L 
 H-HC--0.014836       -1    43.416    26.813    40.052   L 
 H-HC--0.014836       -1    43.033    26.079    41.595   L 
 C-C-0.745168         -1    42.457    24.898    39.904   L 
 O-O2--0.730385       -1    43.092    24.69     38.844   L 
 O-O2--0.730385       -1    41.674    24.054    40.401   L 
 C-C-0.443199         -1    41.639    28.458    41.339   L 
 O-O--0.501445        -1    41.081    28.728    42.399   L 
 N-N--0.451047        -1    42.28     29.382    40.615   L 
 H-H-0.328831         -1    42.673    29.08     39.723   L 
 C-CT--0.101874       -1    42.559    30.759    41.05    L 
 H-H1-0.174193        -1    42.203    30.893    42.073   L 
 C-CT-0.062238        -1    44.092    31.002    41.077   L 
 H-HC-0.061662        -1    44.479    30.855    40.068   L 
 C-CT--0.129989       -1    44.409    32.451    41.504   L 
 H-HC-0.030227        -1    43.958    33.161    40.815   L 
 H-HC-0.030227        -1    44.023    32.645    42.503   L 
 H-HC-0.030227        -1    45.483    32.631    41.491   L 
 C-CT-0.022230        -1    44.788    29.978    42.014   L 
 H-HC-0.011551        -1    44.412    30.099    43.028   L 
 H-HC-0.011551        -1    44.544    28.965    41.692   L 
 C-CT--0.101251       -1    46.318    30.059    42.043   L 
 H-HC-0.023792        -1    46.708    29.24     42.648   L 
 H-HC-0.023792        -1    46.706    29.965    41.028   L 
 H-HC-0.023792        -1    46.647    30.998    42.485   L 
 C-C-0.569383         -1    41.78     31.762    40.175   L 
 O-O--0.619535        -1    42.252    32.207    39.128   L 
 N-N--0.394918        -1    40.556    32.114    40.579   L 
 H-H-0.280537         -1    40.187    31.696    41.426   L 
 C-CT--0.087681       -1    39.855    33.283    40.015   L 
 H-H1-0.123080        -1    39.95     33.271    38.928   L 
 C-CT-0.019227        -1    38.363    33.255    40.383   L 
 H-HC-0.048840        -1    38.26     33.211    41.465   L 
 H-HC-0.048840        -1    37.895    34.183    40.054   L 
 C-CT--0.208167       -1    37.609    32.073    39.758   L 
 H-H1-0.124228        -1    38.102    31.145    40.052   L 
 H-H1-0.124228        -1    36.606    32.052    40.185   L 
 S-S--0.211958        -1    37.45     32.093    37.951   L 
 C-CT--0.284698       -1    36.35     33.514    37.739   L 
 H-H1-0.128394        -1    36.862    34.431    38.028   L 
 H-H1-0.128394        -1    36.043    33.595    36.697   L 
 H-H1-0.128394        -1    35.459    33.392    38.359   L 
 C-C-0.599684         -1    40.491    34.58     40.537   L 
 O-O--0.566424        -1    40.863    34.656    41.707   L 
 N-N--0.451047        -1    40.579    35.619    39.703   L 
 H-H-0.328831         -1    40.321    35.463    38.732   L 
 C-CT--0.101874       -1    41.252    36.892    40.02    L 
 H-H1-0.174193        -1    41.455    36.924    41.088   L 
 C-CT-0.062238        -1    42.616    36.992    39.287   L 
 H-HC-0.061662        -1    42.427    36.987    38.215   L 
 C-CT--0.129989       -1    43.314    38.319    39.644   L 
 H-HC-0.030227        -1    44.237    38.419    39.077   L 
 H-HC-0.030227        -1    42.688    39.171    39.382   L 
 H-HC-0.030227        -1    43.539    38.351    40.711   L 
 C-CT-0.022230        -1    43.529    35.784    39.616   L 
 H-HC-0.011551        -1    43.672    35.725    40.696   L 
 H-HC-0.011551        -1    43.034    34.87     39.291   L 
 C-CT--0.101251       -1    44.908    35.796    38.94    L 
 H-HC-0.023792        -1    45.531    36.588    39.354   L 
 H-HC-0.023792        -1    45.403    34.841    39.119   L 
 H-HC-0.023792        -1    44.795    35.939    37.865   L 
 C-C-0.569383         -1    40.332    38.076    39.691   L 
 O-O--0.619535        -1    39.815    38.181    38.576   L 
 N-N--0.430106        -1    40.131    38.969    40.666   L 
 H-H-0.254543         -1    40.61     38.824    41.547   L 
 C-CT-0.044609        -1    39.187    40.091    40.579   L 
 H-H1-0.059601        -1    39.146    40.447    39.548   L 
 C-CT--0.093650       -1    37.792    39.56     40.977   L 
 H-HC-0.043321        -1    37.532    38.727    40.327   L 
 H-HC-0.043321        -1    37.831    39.18     41.997   L 
 C-C-0.583519         -1    36.668    40.591    40.903   L 
 O-O--0.526813        -1    36.037    40.916    41.901   L 
 N-N--0.781735        -1    36.34     41.091    39.727   L 
 H-H-0.355079         -1    35.58     41.764    39.695   L 
 H-H-0.355079         -1    36.788    40.797    38.875   L 
 C-C-0.617141         -1    39.62     41.264    41.483   L 
 O-O--0.523909        -1    39.644    41.136    42.708   L 
 N-N--0.371290        -1    39.941    42.423    40.895   L 
 H-H-0.234053         -1    39.959    42.469    39.886   L 
 C-CT--0.030057       -1    39.927    43.691    41.636   L 
 H-H1-0.102448        -1    40.542    43.597    42.532   L 
 C-CT--0.098720       -1    40.501    44.819    40.77    L 
 H-HC-0.060989        -1    40.115    44.723    39.758   L 
 H-HC-0.060989        -1    40.141    45.773    41.156   L 
 C-CA-0.021313        -1    42.018    44.863    40.74    L 
 C-CA--0.083109       -1    42.743    43.979    39.918   L 
 H-HA-0.098466        -1    42.225    43.257    39.305   L 
 C-CA--0.156974       -1    44.148    44.022    39.897   L 
 H-HA-0.123731        -1    44.701    43.339    39.27    L 
 C-CA--0.099824       -1    44.833    44.952    40.698   L 
 H-HA-0.114679        -1    45.911    44.989    40.684   L 
 C-CA--0.156974       -1    44.115    45.83     41.526   L 
 H-HA-0.123731        -1    44.643    46.538    42.149   L 
 C-CA--0.083109       -1    42.711    45.783    41.551   L 
 H-HA-0.098466        -1    42.173    46.455    42.202   L 
 C-C-0.547987         -1    38.486    43.996    42.073   L 
 O-O--0.506795        -1    37.553    43.812    41.291   L 
 N-N--0.374282        -1    38.303    44.412    43.329   L 
 H-H-0.253981         -1    39.128    44.556    43.903   L 
 C-CT--0.128844       -1    37.013    44.313    44.017   L 
 H-HC-0.088859        -1    36.194    44.367    43.3     L 
 H-HC-0.088859        -1    36.971    43.332    44.49    L 
 C-C-0.580584         -1    36.781    45.361    45.097   L 
 O-O--0.509157        -1    36.599    44.993    46.255   L 
 N-N--0.506799        -1    32.851    42.751    46.948   L 
 H-H-0.351021         -1    33.142    42.269    47.796   L 
 C-CT-0.119066        -1    33.039    42.049    45.674   L 
 H-H1-0.137761        -1    32.42     42.534    44.917   L 
 C-CT--0.122638       -1    34.502    42.227    45.24    L 
 H-HC-0.086329        -1    34.665    41.725    44.285   L 
 H-HC-0.086329        -1    34.671    43.291    45.084   L 
 C-CC--0.001547       -1    35.504    41.72     46.245   L 
 N-NA--0.205785       -1    35.98     42.399    47.343   L 
 H-H-0.318273         -1    35.816    43.379    47.56    L 
 C-CR-0.147273        -1    36.8      41.58     48.014   L 
 H-H5-0.122182        -1    37.333    41.858    48.914   L 
 N-NB--0.601482       -1    36.875    40.378    47.408   L 
 C-CV-0.043744        -1    36.085    40.484    46.255   L 
 H-H4-0.110157        -1    35.926    39.711    45.513   L 
 C-C-0.515947         -1    32.565    40.576    45.677   L 
 O-O--0.599831        -1    32.738    39.884    44.665   L 
 N-N--0.558201        -1    32.354    37.465    48.118   L 
 H-H-0.319676         -1    32.496    38.299    48.673   L 
 C-CT-0.007225        -1    32.916    36.182    48.599   L 
 H-H1-0.082375        -1    32.197    35.401    48.346   L 
 C-CT--0.047555       -1    34.215    35.832    47.843   L 
 H-HC--0.014836       -1    34.607    34.881    48.204   L 
 H-HC--0.014836       -1    33.976    35.688    46.79    L 
 C-C-0.745168         -1    35.298    36.9      47.953   L 
 O-O2--0.730385       -1    35.253    37.957    47.302   L 
 O-O2--0.730385       -1    36.314    36.805    48.67    L 
 C-C-0.443199         -1    33.088    36.06     50.133   L 
 O-O--0.501445        -1    33.72     35.108    50.596   L 
 N-N--0.371290        -1    36.24     44.622    51.815   L 
 H-H-0.234053         -1    35.929    44.696    50.854   L 
 C-CT--0.030057       -1    37.495    45.286    52.176   L 
 H-H1-0.102448        -1    38.081    44.604    52.788   L 
 C-CT--0.098720       -1    38.32     45.665    50.931   L 
 H-HC-0.060989        -1    37.708    46.259    50.256   L 
 H-HC-0.060989        -1    39.135    46.315    51.254   L 
 C-CA-0.021313        -1    38.962    44.528    50.162   L 
 C-CA--0.083109       -1    39.845    43.646    50.811   L 
 H-HA-0.098466        -1    40.044    43.758    51.866   L 
 C-CA--0.156974       -1    40.489    42.631    50.086   L 
 H-HA-0.123731        -1    41.161    41.958    50.595   L 
 C-CA--0.099824       -1    40.263    42.496    48.707   L 
 H-HA-0.114679        -1    40.753    41.709    48.154   L 
 C-CA--0.156974       -1    39.404    43.393    48.048   L 
 H-HA-0.123731        -1    39.24     43.306    46.983   L 
 C-CA--0.083109       -1    38.755    44.406    48.776   L 
 H-HA-0.098466        -1    38.113    45.108    48.265   L 
 C-C-0.547987         -1    37.224    46.556    52.993   L 
 O-O--0.506795        -1    36.28     47.302    52.721   L 
 N-N--0.558201        -1    38.105    46.837    53.953   L 
 H-H-0.319676         -1    38.851    46.165    54.098   L 
 C-CT-0.007225        -1    38.261    48.179    54.526   L 
 H-H1-0.082375        -1    37.297    48.512    54.912   L 
 C-CT--0.047555       -1    39.251    48.134    55.704   L 
 H-HC--0.014836       -1    39.4      49.146    56.083   L 
 H-HC--0.014836       -1    38.801    47.545    56.505   L 
 C-C-0.745168         -1    40.611    47.532    55.338   L 
 O-O2--0.730385       -1    40.945    46.459    55.89    L 
 O-O2--0.730385       -1    41.322    48.104    54.474   L 
 C-C-0.443199         -1    38.725    49.187    53.458   L 
 O-O--0.501445        -1    39.455    48.822    52.531   L 
 N-N--0.558201        -1    44.145    52.352    53.034   L 
 H-H-0.319676         -1    44.326    52.021    52.084   L 
 C-CT-0.007225        -1    44.981    51.74     54.078   L 
 H-H1-0.082375        -1    45.889    51.385    53.586   L 
 C-CT--0.047555       -1    45.442    52.78     55.126   L 
 H-HC--0.014836       -1    44.605    53.054    55.768   L 
 H-HC--0.014836       -1    46.204    52.325    55.76    L 
 C-C-0.745168         -1    46.045    54.041    54.503   L 
 O-O2--0.730385       -1    46.929    53.919    53.627   L 
 O-O2--0.730385       -1    45.673    55.166    54.913   L 
 C-C-0.443199         -1    44.314    50.478    54.674   L 
 O-O--0.501445        -1    43.483    49.842    54.016   L 
 N-N--0.374282        -1    44.701    50.073    55.89    L 
 H-H-0.253981         -1    45.4      50.617    56.375   L 
 C-CT--0.128844       -1    44.203    48.858    56.547   L 
 H-HC-0.088859        -1    44.488    48.853    57.599   L 
 H-HC-0.088859        -1    43.116    48.818    56.471   L 
 C-C-0.580584         -1    44.787    47.615    55.883   L 
 O-O--0.509157        -1    45.985    47.358    56.01    L 
 N-N--0.355153        0     43.95     46.876    55.149   L 
 H-H-0.262417         0     42.972    47.151    55.125   L 
 C-CT--0.101497       0     44.347    45.749    54.299   L 
 H-H1-0.136951        0     45.421    45.582    54.404   L 
 C-CT--0.144399       0     43.606    44.469    54.74    L 
 H-HC-0.052533        0     42.557    44.589    54.476   L 
 H-HC-0.052533        0     43.993    43.628    54.162   L 
 C-CT-0.191982        0     43.685    44.112    56.241   L 
 H-HC-0.000825        0     43.27     44.931    56.83    L 
 C-CT--0.123036       0     42.834    42.863    56.512   L 
 H-HC-0.022376        0     43.215    42.015    55.941   L 
 H-HC-0.022376        0     42.862    42.62     57.575   L 
 H-HC-0.022376        0     41.799    43.051    56.228   L 
 C-CT--0.123036       0     45.124    43.855    56.711   L 
 H-HC-0.022376        0     45.556    43.029    56.151   L 
 H-HC-0.022376        0     45.738    44.743    56.567   L 
 H-HC-0.022376        0     45.126    43.605    57.772   L 
 C-C-0.573471         0     44.074    46.07     52.819   L 
 O-O--0.557847        0     43.293    46.978    52.498   L 
 N-N--0.355153        -1    44.725    45.322    51.92    L 
 H-H-0.262417         -1    45.377    44.641    52.294   L 
 C-CT--0.101497       -1    44.83     45.632    50.485   L 
 H-H1-0.136951        -1    44.183    46.477    50.245   L 
 C-CT--0.144399       -1    46.287    46.024    50.146   L 
 H-HC-0.052533        -1    46.869    45.102    50.087   L 
 H-HC-0.052533        -1    46.286    46.467    49.148   L 
 C-CT-0.191982        -1    47.042    46.98     51.094   L 
 H-HC-0.000825        -1    47.112    46.527    52.083   L 
 C-CT--0.123036       -1    48.466    47.166    50.551   L 
 H-HC-0.022376        -1    49.052    47.764    51.249   L 
 H-HC-0.022376        -1    48.956    46.206    50.412   L 
 H-HC-0.022376        -1    48.426    47.663    49.584   L 
 C-CT--0.123036       -1    46.387    48.36     51.232   L 
 H-HC-0.022376        -1    46.396    48.87     50.27    L 
 H-HC-0.022376        -1    45.362    48.266    51.58    L 
 H-HC-0.022376        -1    46.942    48.96     51.953   L 
 C-C-0.573471         -1    44.415    44.477    49.551   L 
 O-O--0.557847        -1    44.24     44.703    48.357   L 
 N-N--0.404773        0     44.301    43.241    50.046   L 
 H-H-0.294276         0     44.402    43.098    51.038   L 
 C-CT--0.027733       0     44.055    42.049    49.227   L 
 H-H1-0.120802        0     43.289    42.279    48.487   L 
 C-CT--0.229951       0     45.368    41.685    48.51    L 
 H-HC-0.077428        0     46.125    41.391    49.239   L 
 H-HC-0.077428        0     45.195    40.861    47.82    L 
 H-HC-0.077428        0     45.736    42.535    47.935   L 
 C-C-0.570224         0     43.565    40.86     50.072   L 
 O-O--0.555129        0     43.682    40.897    51.298   L 
 N-N--0.506799        0     43.059    39.801    49.43    L 
 H-H-0.351021         0     42.976    39.852    48.419   L 
 C-CT-0.119066        0     42.939    38.479    50.059   L 
 H-H1-0.137761        0     43.83     38.339    50.677   L 
 C-CT--0.122638       0     41.732    38.41     51.021   L 
 H-HC-0.086329        0     41.656    37.389    51.395   L 
 H-HC-0.086329        0     41.969    39.026    51.889   L 
 C-CC--0.001547       0     40.362    38.833    50.522   L 
 N-NA--0.205785       0     39.548    39.739    51.157   L 
 H-H-0.318273         0     39.781    40.273    51.991   L 
 C-CR-0.147273        0     38.371    39.77     50.52    L 
 H-H5-0.122182        0     37.545    40.404    50.822   L 
 N-NB--0.601482       0     38.348    38.9      49.488   L 
 C-CV-0.043744        0     39.619    38.3      49.496   L 
 H-H4-0.110157        0     39.936    37.51     48.836   L 
 C-C-0.515947         0     42.916    37.288    49.073   L 
 O-O--0.599831        0     42.207    37.286    48.06    L 
 N-N--0.404773        0     43.628    36.226    49.451   L 
 H-H-0.294276         0     44.355    36.385    50.145   L 
 C-CT--0.027733       0     43.515    34.861    48.943   L 
 H-H1-0.120802        0     42.575    34.759    48.406   L 
 C-CT--0.229951       0     44.676    34.599    47.979   L 
 H-HC-0.077428        0     44.563    33.623    47.506   L 
 H-HC-0.077428        0     44.69     35.364    47.205   L 
 H-HC-0.077428        0     45.617    34.627    48.526   L 
 C-C-0.570224         0     43.495    33.845    50.099   L 
 O-O--0.555129        0     43.842    34.175    51.237   L 
 N-N--0.371290        0     43.082    32.607    49.808   L 
 H-H-0.234053         0     42.887    32.388    48.842   L 
 C-CT--0.030057       0     42.705    31.608    50.817   L 
 H-H1-0.102448        0     43.147    31.877    51.778   L 
 C-CT--0.098720       0     41.173    31.636    50.978   L 
 H-HC-0.060989        0     40.712    31.326    50.038   L 
 H-HC-0.060989        0     40.876    30.915    51.74    L 
 C-CA-0.021313        0     40.628    32.994    51.383   L 
 C-CA--0.083109       0     39.909    33.775    50.458   L 
 H-HA-0.098466        0     39.718    33.397    49.463   L 
 C-CA--0.156974       0     39.452    35.054    50.82    L 
 H-HA-0.123731        0     38.903    35.652    50.106   L 
 C-CA--0.099824       0     39.711    35.56     52.105   L 
 H-HA-0.114679        0     39.366    36.548    52.379   L 
 C-CA--0.156974       0     40.421    34.779    53.033   L 
 H-HA-0.123731        0     40.621    35.164    54.023   L 
 C-CA--0.083109       0     40.878    33.498    52.674   L 
 H-HA-0.098466        0     41.435    32.908    53.388   L 
 C-C-0.547987         0     43.215    30.199    50.477   L 
 O-O--0.506795        0     43.741    29.96     49.39    L 
 N-N--0.404773        0     43.062    29.265    51.42    L 
 H-H-0.294276         0     42.614    29.542    52.29    L 
 C-CT--0.027733       0     43.586    27.9      51.338   L 
 H-H1-0.120802        0     44.672    27.981    51.349   L 
 C-CT--0.229951       0     43.147    27.152    52.602   L 
 H-HC-0.077428        0     42.059    27.077    52.629   L 
 H-HC-0.077428        0     43.574    26.148    52.606   L 
 H-HC-0.077428        0     43.488    27.678    53.492   L 
 C-C-0.570224         0     43.146    27.123    50.07    L 
 O-O--0.555129        0     42.011    27.324    49.614   L 
 N-N--0.088116        0     43.996    26.209    49.547   L 
 C-CT--0.011906       0     45.389    26.037    49.948   L 
 H-H1-0.043951        0     45.436    25.636    50.96    L 
 H-H1-0.043950        0     45.927    26.985    49.895   L 
 C-CT-0.013059        0     46.02     25.047    48.972   L 
 H-HC-0.019574        0     46.744    24.399    49.466   L 
 H-HC-0.019574        0     46.493    25.594    48.16    L 
 C-CT--0.003351       0     44.828    24.264    48.439   L 
 H-HC-0.019352        0     44.609    23.438    49.114   L 
 H-HC-0.019352        0     45.01     23.878    47.44    L 
 C-CT--0.034577       0     43.684    25.284    48.456   L 
 H-H1-0.059977        0     43.708    25.851    47.525   L 
 C-C-0.333720         0     42.333    24.568    48.565   L 
 O-O--0.434559        0     41.756    24.432    49.646   L 
 N-N--0.374282        -1    41.864    24.071    47.416   L 
 H-H-0.253981         -1    42.402    24.248    46.576   L 
 C-CT--0.128844       -1    40.551    23.446    47.227   L 
 H-HC-0.088859        -1    40.692    22.412    46.914   L 
 H-HC-0.088859        -1    39.976    23.455    48.152   L 
 C-C-0.580584         -1    39.737    24.143    46.133   L 
 O-O--0.509157        -1    40.191    25.131    45.554   L 
 N-N--0.245382        -1    38.544    23.631    45.815   L 
 H-H-0.255339         -1    38.214    22.832    46.348   L 
 C-CT--0.271249       -1    37.641    24.22     44.803   L 
 H-H1-0.163757        -1    38.241    24.556    43.957   L 
 C-CT-0.237868        -1    36.647    23.184    44.258   L 
 H-H1-0.044688        -1    36.023    23.661    43.5     L 
 C-CT--0.176489       -1    37.352    22.004    43.588   L 
 H-HC-0.060019        -1    38.       21.491    44.297   L 
 H-HC-0.060019        -1    36.61     21.301    43.211   L 
 H-HC-0.060019        -1    37.952    22.364    42.752   L 
 O-OH--0.601931       -1    35.811    22.705    45.285   L 
 H-HO-0.405484        -1    34.936    23.104    45.119   L 
 C-C-0.559878         -1    36.922    25.46     45.342   L 
 O-O--0.552020        -1    37.006    25.778    46.532   L 
 N-N--0.374282        -1    36.217    26.173    44.455   L 
 H-H-0.253981         -1    36.236    25.889    43.486   L 
 C-CT--0.128844       -1    35.406    27.34     44.809   L 
 H-HC-0.088859        -1    34.766    27.622    43.973   L 
 H-HC-0.088859        -1    34.783    27.073    45.661   L 
 C-C-0.580584         -1    36.266    28.545    45.187   L 
 O-O--0.509157        -1    37.222    28.859    44.469   L 
 N-N--0.450087        -1    35.918    29.213    46.29    L 
 H-H-0.440048         -1    35.043    28.916    46.734   L 
 C-CT--0.051858       -1    36.647    30.367    46.868   L 
 H-H1--0.026204       -1    36.673    31.132    46.094   L 
 C-CT-0.395217        -1    35.927    30.984    48.094   L 
 H-HC--0.115672       -1    36.557    31.784    48.478   L 
 C-CT--0.090132       -1    34.591    31.642    47.712   L 
 H-HC--0.008985       -1    33.896    30.908    47.317   L 
 H-HC--0.008985       -1    34.146    32.114    48.589   L 
 H-HC--0.008985       -1    34.758    32.409    46.957   L 
 C-CT--0.090132       -1    35.731    29.979    49.244   L 
 H-HC--0.008985       -1    35.25     30.473    50.088   L 
 H-HC--0.008985       -1    35.11     29.142    48.928   L 
 H-HC--0.008985       -1    36.696    29.597    49.577   L 
 C-C-0.447359         -1    38.11     30.091    47.269   L 
 O-O--0.404629        -1    38.863    31.041    47.479   L 
 N-N--0.374282        -1    38.541    28.824    47.38    L 
 H-H-0.253981         -1    37.9      28.067    47.176   L 
 C-CT--0.128844       -1    39.929    28.491    47.733   L 
 H-HC-0.088859        -1    40.198    28.994    48.662   L 
 H-HC-0.088859        -1    40.033    27.414    47.864   L 
 C-C-0.580584         -1    40.909    28.935    46.648   L 
 O-O--0.509157        -1    40.577    28.857    45.468   L 
 N-N--0.374282        0     42.104    29.409    47.002   L 
 H-H-0.253981         0     42.341    29.427    47.987   L 
 C-CT--0.128844       0     43.144    29.857    46.056   L 
 H-HC-0.088859        0     44.066    30.021    46.611   L 
 H-HC-0.088859        0     43.302    29.072    45.319   L 
 C-C-0.580584         0     42.845    31.139    45.261   L 
 O-O--0.509157        0     43.781    31.855    44.912   L 
 N-N--0.558201        0     41.573    31.439    44.974   L 
 H-H-0.319676         0     40.876    30.765    45.258   L 
 C-CT-0.007225        0     41.108    32.678    44.338   L 
 H-H1-0.082375        0     41.423    32.683    43.295   L 
 C-CT--0.047555       0     39.573    32.774    44.399   L 
 H-HC--0.014836       0     39.273    32.773    45.447   L 
 H-HC--0.014836       0     39.288    33.747    43.993   L 
 C-C-0.745168         0     38.734    31.719    43.661   L 
 O-O2--0.730385       0     37.497    31.84     43.766   L 
 O-O2--0.730385       0     39.231    30.811    42.943   L 
 C-C-0.443199         0     41.714    33.914    45.033   L 
 O-O--0.501445        0     41.941    33.905    46.242   L 
 N-N--0.541430        0     41.958    34.995    44.296   L 
 H-H-0.345415         0     41.653    34.997    43.324   L 
 C-CT-0.118140        0     42.773    36.132    44.754   L 
 H-H1-0.142177        0     42.877    36.113    45.839   L 
 C-CT-0.146998        0     44.178    36.01     44.147   L 
 H-H1-0.040081        0     44.096    35.968    43.06    L 
 H-H1-0.040081        0     44.759    36.894    44.413   L 
 O-OH--0.640312       0     44.869    34.858    44.608   L 
 H-HO-0.446255        0     44.279    34.089    44.603   L 
 C-C-0.483424         0     42.159    37.487    44.368   L 
 O-O--0.580829        0     41.946    37.774    43.187   L 
 N-N--0.528120        0     41.898    38.346    45.36    L 
 H-H-0.281695         0     42.099    38.059    46.314   L 
 C-CT-0.031249        0     41.214    39.635    45.184   L 
 H-H1-0.085175        0     41.055    39.808    44.123   L 
 C-CT--0.152267       0     39.843    39.588    45.881   L 
 H-HC-0.054608        0     40.001    39.548    46.959   L 
 H-HC-0.054608        0     39.301    40.508    45.658   L 
 C-CC-0.278406        0     38.962    38.431    45.497   L 
 N-NB--0.423316       0     38.113    37.75     46.372   L 
 C-CR-0.025960        0     37.567    36.772    45.63    L 
 H-H5-0.126832        0     36.865    36.043    45.999   L 
 N-NA--0.097984       0     38.003    36.813    44.363   L 
 H-H-0.266865         0     37.753    36.16     43.633   L 
 C-CW--0.297563       0     38.877    37.865    44.258   L 
 H-H4-0.160413        0     39.433    38.163    43.384   L 
 C-C-0.662405         0     42.033    40.818    45.722   L 
 O-O--0.528966        0     42.818    40.655    46.658   L 
 N-N--0.371290        0     41.799    42.016    45.169   L 
 H-H-0.234053         0     41.088    42.073    44.454   L 
 C-CT--0.030057       0     42.593    43.225    45.43    L 
 H-H1-0.102448        0     43.17     43.092    46.346   L 
 C-CT--0.098720       0     43.59     43.428    44.275   L 
 H-HC-0.060989        0     43.04     43.524    43.339   L 
 H-HC-0.060989        0     44.125    44.367    44.435   L 
 C-CA-0.021313        0     44.61     42.31     44.14    L 
 C-CA--0.083109       0     44.343    41.197    43.318   L 
 H-HA-0.098466        0     43.424    41.148    42.752   L 
 C-CA--0.156974       0     45.257    40.13     43.254   L 
 H-HA-0.123731        0     45.038    39.27     42.637   L 
 C-CA--0.099824       0     46.449    40.178    43.998   L 
 H-HA-0.114679        0     47.148    39.354    43.953   L 
 C-CA--0.156974       0     46.73     41.297    44.802   L 
 H-HA-0.123731        0     47.646    41.338    45.373   L 
 C-CA--0.083109       0     45.81     42.36     44.875   L 
 H-HA-0.098466        0     46.022    43.211    45.506   L 
 C-C-0.547987         0     41.7      44.461    45.628   L 
 O-O--0.506795        0     40.692    44.635    44.94    L 
 N-N--0.558201        -1    42.074    45.303    46.591   L 
 H-H-0.319676         -1    42.924    45.088    47.105   L 
 C-CT-0.007225        -1    41.305    46.448    47.083   L 
 H-H1-0.082375        -1    40.247    46.184    47.07    L 
 C-CT--0.047555       -1    41.692    46.698    48.549   L 
 H-HC--0.014836       -1    41.615    45.757    49.096   L 
 H-HC--0.014836       -1    42.733    47.022    48.589   L 
 C-C-0.745168         -1    40.823    47.729    49.271   L 
 O-O2--0.730385       -1    39.775    48.144    48.727   L 
 O-O2--0.730385       -1    41.217    48.079    50.415   L 
 C-C-0.443199         -1    41.488    47.695    46.201   L 
 O-O--0.501445        -1    42.376    48.522    46.396   L 
 N-N--0.558201        -1    40.634    47.823    45.192   L 
 H-H-0.319676         -1    39.991    47.059    45.049   L 
 C-CT-0.007225        -1    40.544    48.968    44.275   L 
 H-H1-0.082375        -1    41.548    49.192    43.913   L 
 C-CT--0.047555       -1    39.729    48.474    43.063   L 
 H-HC--0.014836       -1    40.298    47.684    42.575   L 
 H-HC--0.014836       -1    38.817    48.008    43.428   L 
 C-C-0.745168         -1    39.372    49.512    41.995   L 
 O-O2--0.730385       -1    40.286    50.121    41.393   L 
 O-O2--0.730385       -1    38.155    49.638    41.716   L 
 C-C-0.443199         -1    40.041    50.282    44.942   L 
 O-O--0.501445        -1    39.801    51.263    44.244   L 
 N-N--0.423392        -1    42.314    51.5      47.05    L 
 H-H-0.306811         -1    42.138    50.573    46.677   L 
 C-CT-0.031633        -1    43.713    51.884    47.275   L 
 H-H1-0.065100        -1    43.753    52.588    48.101   L 
 C-CT-0.074772        -1    44.524    50.634    47.69    L 
 H-HC--0.003535       -1    44.583    49.962    46.834   L 
 H-HC--0.003535       -1    45.544    50.927    47.94    L 
 C-CT--0.033909       -1    43.948    49.844    48.881   L 
 H-HC--0.004135       -1    42.918    49.565    48.673   L 
 H-HC--0.004135       -1    44.514    48.918    48.98    L 
 C-C-0.765188         -1    43.979    50.579    50.221   L 
 O-O2--0.824035       -1    44.757    51.545    50.398   L 
 O-O2--0.824035       -1    43.214    50.174    51.132   L 
 C-C-0.469735         -1    44.313    52.598    46.036   L 
 O-O--0.592528        -1    43.588    53.152    45.205   L 
 N-N--0.427579        -1    47.369    51.624    43.059   L 
 H-H-0.241716         -1    46.681    52.043    42.445   L 
 C-CT--0.020082       -1    48.103    50.459    42.552   L 
 H-H1-0.106629        -1    48.633    49.976    43.375   L 
 C-CT--0.098364       -1    47.089    49.444    42.011   L 
 H-HC-0.065424        -1    46.45     49.932    41.273   L 
 H-HC-0.065424        -1    47.627    48.64     41.507   L 
 C-C*--0.099797       -1    46.24     48.832    43.082   L 
 C-CW--0.174053       -1    44.959    49.162    43.367   L 
 H-H4-0.170633        -1    44.375    49.906    42.835   L 
 N-NA--0.298433       -1    44.526    48.432    44.458   L 
 H-H-0.322375         -1    43.615    48.548    44.898   L 
 C-CN-0.141523        -1    45.512    47.596    44.933   L 
 C-CA--0.210701       -1    45.566    46.693    46.003   L 
 H-HA-0.125512        -1    44.703    46.561    46.639   L 
 C-CA--0.133022       -1    46.75     45.973    46.235   L 
 H-HA-0.119467        -1    46.799    45.267    47.052   L 
 C-CA--0.164054       -1    47.868    46.179    45.406   L 
 H-HA-0.119250        -1    48.78     45.631    45.59    L 
 C-CA--0.153992       -1    47.807    47.1      44.342   L 
 H-HA-0.123084        -1    48.677    47.257    43.722   L 
 C-CB-0.089641        -1    46.625    47.827    44.072   L 
 C-C-0.584129         -1    49.146    50.867    41.507   L 
 O-O--0.494730        -1    48.834    51.554    40.532   L 
 N-N--0.487560        -1    51.069    50.856    46.006   L 
 H-H-0.263521         -1    50.269    50.875    45.382   L 
 C-CT-0.009614        -1    51.647    49.551    46.326   L 
 H-H1-0.095501        -1    52.55     49.69     46.921   L 
 C-CT--0.051853       -1    50.648    48.757    47.177   L 
 H-HC-0.019145        -1    49.776    48.512    46.566   L 
 H-HC-0.019145        -1    51.119    47.82     47.47    L 
 C-CA-0.112601        -1    50.186    49.473    48.433   L 
 C-CA--0.183461       -1    48.933    50.118    48.463   L 
 H-HA-0.132715        -1    48.301    50.108    47.584   L 
 C-CA--0.181823       -1    48.492    50.754    49.639   L 
 H-HA-0.137303        -1    47.519    51.222    49.667   L 
 C-C-0.206277         -1    49.313    50.767    50.789   L 
 O-OH--0.421233       -1    48.891    51.388    51.926   L 
 H-HO-0.329691        -1    49.521    51.291    52.654   L 
 C-CA--0.181823       -1    50.575    50.133    50.752   L 
 H-HA-0.137303        -1    51.206    50.137    51.626   L 
 C-CA--0.183461       -1    51.007    49.488    49.577   L 
 H-HA-0.132715        -1    51.968    48.996    49.559   L 
 C-C-0.622290         -1    52.03     48.785    45.051   L 
 O-O--0.526607        -1    51.267    48.733    44.085   L 
 N-N--0.541430        -1    53.23     48.201    45.05    L 
 H-H-0.345415         -1    53.798    48.28     45.883   L 
 C-CT-0.118140        -1    53.78     47.436    43.927   L 
 H-H1-0.142177        -1    53.671    48.023    43.021   L 
 C-CT-0.146998        -1    55.284    47.214    44.133   L 
 H-H1-0.040081        -1    55.772    48.171    44.321   L 
 H-H1-0.040081        -1    55.445    46.569    44.996   L 
 O-OH--0.640312       -1    55.851    46.624    42.981   L 
 H-HO-0.446255        -1    56.403    47.284    42.522   L 
 C-C-0.483424         -1    53.034    46.106    43.73    L 
 O-O--0.580829        -1    53.199    45.162    44.512   L 
 N-N--0.355153        -1    52.174    46.035    42.705   L 
 H-H-0.262417         -1    52.05     46.864    42.128   L 
 C-CT--0.101497       -1    51.239    44.92     42.518   L 
 H-H1-0.136951        -1    50.591    44.891    43.395   L 
 C-CT--0.144399       -1    50.369    45.197    41.278   L 
 H-HC-0.052533        -1    49.865    46.157    41.408   L 
 H-HC-0.052533        -1    51.02     45.278    40.405   L 
 C-CT-0.191982        -1    49.305    44.11     41.001   L 
 H-HC-0.000825        -1    49.799    43.147    40.863   L 
 C-CT--0.123036       -1    48.285    43.973    42.143   L 
 H-HC-0.022376        -1    47.524    43.239    41.873   L 
 H-HC-0.022376        -1    48.774    43.63     43.054   L 
 H-HC-0.022376        -1    47.802    44.932    42.333   L 
 C-CT--0.123036       -1    48.58     44.446    39.695   L 
 H-HC-0.022376        -1    47.828    43.684    39.491   L 
 H-HC-0.022376        -1    48.095    45.42     39.774   L 
 H-HC-0.022376        -1    49.292    44.466    38.869   L 
 C-C-0.573471         -1    51.926    43.548    42.445   L 
 O-O--0.557847        -1    51.514    42.638    43.161   L 
 N-N--0.371290        0     52.984    43.395    41.636   L 
 H-H-0.234053         0     53.302    44.186    41.098   L 
 C-CT--0.030057       0     53.722    42.126    41.534   L 
 H-H1-0.102448        0     53.007    41.34     41.287   L 
 C-CT--0.098720       0     54.755    42.188    40.392   L 
 H-HC-0.060989        0     55.258    41.221    40.332   L 
 H-HC-0.060989        0     54.229    42.321    39.448   L 
 C-CA-0.021313        0     55.814    43.271    40.499   L 
 C-CA--0.083109       0     56.978    43.054    41.263   L 
 H-HA-0.098466        0     57.12     42.119    41.787   L 
 C-CA--0.156974       0     57.964    44.052    41.349   L 
 H-HA-0.123731        0     58.855    43.886    41.939   L 
 C-CA--0.099824       0     57.797    45.264    40.658   L 
 H-HA-0.114679        0     58.557    46.029    40.719   L 
 C-CA--0.156974       0     56.646    45.478    39.881   L 
 H-HA-0.123731        0     56.53     46.405    39.34    L 
 C-CA--0.083109       0     55.654    44.486    39.803   L 
 H-HA-0.098466        0     54.776    44.655    39.196   L 
 C-C-0.547987         0     54.369    41.711    42.866   L 
 O-O--0.506795        0     54.418    40.521    43.174   L 
 N-N--0.355153        0     54.815    42.686    43.669   L 
 H-H-0.262417         0     54.73     43.641    43.348   L 
 C-CT--0.101497       0     55.371    42.468    45.005   L 
 H-H1-0.136951        0     56.115    41.672    44.946   L 
 C-CT--0.144399       0     56.049    43.789    45.451   L 
 H-HC-0.052533        0     56.457    44.284    44.567   L 
 H-HC-0.052533        0     55.289    44.453    45.859   L 
 C-CT-0.191982        0     57.201    43.713    46.473   L 
 H-HC-0.000825        0     57.507    44.739    46.685   L 
 C-CT--0.123036       0     56.78     43.082    47.803   L 
 H-HC-0.022376        0     55.888    43.581    48.183   L 
 H-HC-0.022376        0     56.58     42.02     47.666   L 
 H-HC-0.022376        0     57.583    43.195    48.533   L 
 C-CT--0.123036       0     58.422    42.983    45.9     L 
 H-HC-0.022376        0     59.248    43.046    46.609   L 
 H-HC-0.022376        0     58.191    41.933    45.72    L 
 H-HC-0.022376        0     58.73     43.45     44.964   L 
 C-C-0.573471         0     54.265    41.99     45.961   L 
 O-O--0.557847        0     54.4      40.933    46.573   L 
 N-N--0.450087        0     53.145    42.717    46.034   L 
 H-H-0.440048         0     53.105    43.565    45.465   L 
 C-CT--0.051858       0     52.003    42.381    46.913   L 
 H-H1--0.026204       0     52.384    42.329    47.932   L 
 C-CT-0.395217        0     50.914    43.483    46.874   L 
 H-HC--0.115672       0     50.646    43.673    45.833   L 
 C-CT--0.090132       0     49.632    43.096    47.636   L 
 H-HC--0.008985       0     48.941    43.939    47.66    L 
 H-HC--0.008985       0     49.13     42.266    47.139   L 
 H-HC--0.008985       0     49.876    42.806    48.658   L 
 C-CT--0.090132       0     51.451    44.791    47.48    L 
 H-HC--0.008985       0     51.748    44.63     48.515   L 
 H-HC--0.008985       0     52.313    45.151    46.923   L 
 H-HC--0.008985       0     50.675    45.555    47.448   L 
 C-C-0.447359         0     51.396    41.009    46.575   L 
 O-O--0.404629        0     51.14     40.208    47.478   L 
 N-N--0.404773        0     51.2      40.712    45.283   L 
 H-H-0.294276         0     51.429    41.413    44.583   L 
 C-CT--0.027733       0     50.591    39.466    44.814   L 
 H-H1-0.120802        0     49.583    39.397    45.228   L 
 C-CT--0.229951       0     50.476    39.526    43.284   L 
 H-HC-0.077428        0     49.999    38.616    42.916   L 
 H-HC-0.077428        0     49.871    40.385    42.989   L 
 H-HC-0.077428        0     51.467    39.615    42.837   L 
 C-C-0.570224         0     51.339    38.202    45.271   L 
 O-O--0.555129        0     50.695    37.187    45.53    L 
 N-N--0.404773        0     52.667    38.263    45.432   L 
 H-H-0.294276         0     53.137    39.138    45.23    L 
 C-CT--0.027733       0     53.484    37.121    45.85    L 
 H-H1-0.120802        0     53.36     36.324    45.114   L 
 C-CT--0.229951       0     54.957    37.552    45.845   L 
 H-HC-0.077428        0     55.125    38.339    46.582   L 
 H-HC-0.077428        0     55.591    36.698    46.088   L 
 H-HC-0.077428        0     55.234    37.927    44.859   L 
 C-C-0.570224         0     53.063    36.534    47.211   L 
 O-O--0.555129        0     53.052    35.314    47.368   L 
 N-N--0.506799        0     52.676    37.382    48.172   L 
 H-H-0.351021         0     52.687    38.37     47.952   L 
 C-CT-0.119066        0     52.184    36.95     49.488   L 
 H-H1-0.137761        0     52.887    36.235    49.923   L 
 C-CT--0.122638       0     52.102    38.185    50.409   L    H-H4     1024  0.        0. 
 H-HC-0.086329        0     53.106    38.59     50.543   L 
 H-HC-0.086329        0     51.501    38.954    49.92    L 
 C-CC--0.001547       0     51.5      37.93     51.776   H 
 N-NA--0.205785       0     52.177    37.748    52.956   H 
 H-H-0.318273         0     53.19     37.714    53.06    H 
 C-CR-0.147273        0     51.273    37.643    53.946   H 
 H-H5-0.122182        0     51.534    37.511    54.988   H 
 N-NB--0.601482       0     50.011    37.753    53.477   H 
 C-CV-0.043744        0     50.17     37.949    52.091   H 
 H-H4-0.110157        0     49.384    38.114    51.372   H 
 C-C-0.515947         0     50.83     36.221    49.387   L 
 O-O--0.599831        0     50.676    35.13     49.936   L 
 N-N--0.423392        0     49.859    36.79     48.661   L 
 H-H-0.306811         0     50.057    37.652    48.175   L 
 C-CT-0.031633        0     48.533    36.183    48.487   L 
 H-H1-0.065100        0     48.115    35.966    49.471   L 
 C-CT-0.074772        0     47.586    37.153    47.757   L    H-HC     1041  0.        0. 
 H-HC--0.003535       0     47.997    37.378    46.772   L 
 H-HC--0.003535       0     46.628    36.658    47.606   L 
 C-CT--0.033909       0     47.331    38.481    48.49    H 
 H-HC--0.004135       0     48.254    39.064    48.501   H 
 H-HC--0.004135       0     46.59     39.042    47.922   H 
 C-C-0.765188         0     46.824    38.313    49.925   H 
 O-O2--0.824035       0     47.277    39.065    50.818   H 
 O-O2--0.824035       0     46.048    37.375    50.213   H 
 C-C-0.469735         0     48.627    34.846    47.734   L 
 O-O--0.592528        0     48.068    33.84     48.175   L 
 N-N--0.371290        0     49.417    34.793    46.655   L 
 H-H-0.234053         0     49.859    35.644    46.322   L 
 C-CT--0.030057       0     49.7      33.548    45.939   L 
 H-H1-0.102448        0     48.751    33.101    45.643   L 
 C-CT--0.098720       0     50.508    33.837    44.661   L 
 H-HC-0.060989        0     51.323    34.521    44.9     L 
 H-HC-0.060989        0     50.96     32.895    44.347   L 
 C-CA-0.021313        0     49.747    34.381    43.454   L 
 C-CA--0.083109       0     48.482    35.       43.562   L 
 H-HA-0.098466        0     47.994    35.112    44.518   L 
 C-CA--0.156974       0     47.817    35.47     42.415   L 
 H-HA-0.123731        0     46.842    35.926    42.51    L 
 C-CA--0.099824       0     48.41     35.333    41.149   L 
 H-HA-0.114679        0     47.893    35.682    40.267   L 
 C-CA--0.156974       0     49.67     34.724    41.033   L 
 H-HA-0.123731        0     50.124    34.604    40.058   L 
 C-CA--0.083109       0     50.33     34.243    42.178   L 
 H-HA-0.098466        0     51.289    33.759    42.072   L 
 C-C-0.547987         0     50.405    32.516    46.839   L 
 O-O--0.506795        0     50.19     31.321    46.657   L 
 N-N--0.374282        0     51.167    32.949    47.853   L 
 H-H-0.253981         0     51.307    33.947    47.955   L 
 C-CT--0.128844       0     51.741    32.07     48.878   L 
 H-HC-0.088859        0     52.31     31.273    48.398   L 
 H-HC-0.088859        0     52.398    32.653    49.524   L 
 C-C-0.580584         0     50.666    31.423    49.749   L 
 O-O--0.509157        0     50.701    30.213    49.971   L 
 N-N--0.506799        0     49.657    32.183    50.182   L 
 H-H-0.351021         0     49.665    33.173    49.945   L 
 C-CT-0.119066        0     48.481    31.6      50.843   L 
 H-H1-0.137761        0     48.823    31.027    51.704   L 
 C-CT--0.122638       0     47.532    32.693    51.348   L    H-H4     1083  0.        0. 
 H-HC-0.086329        0     47.312    33.403    50.551   L 
 H-HC-0.086329        0     46.586    32.232    51.638   L 
 C-CC--0.001547       0     48.07     33.428    52.543   H 
 N-NA--0.205785       0     47.943    33.047    53.856   H 
 H-H-0.318273         0     47.409    32.258    54.22    H 
 C-CR-0.147273        0     48.518    33.985    54.618   H 
 H-H5-0.122182        0     48.526    33.964    55.7     H 
 N-NB--0.601482       0     48.973    35.003    53.864   H 
 C-CV-0.043744        0     48.736    34.621    52.536   H 
 H-H4-0.110157        0     48.975    35.199    51.654   H 
 C-C-0.515947         0     47.732    30.604    49.94    L 
 O-O--0.599831        0     47.34     29.534    50.419   L 
 N-N--0.404773        0     47.6      30.914    48.644   L 
 H-H-0.294276         0     47.896    31.839    48.341   L 
 C-CT--0.027733       0     47.019    30.022    47.637   L 
 H-H1-0.120802        0     46.051    29.68     48.011   L 
 C-CT--0.229951       0     46.776    30.822    46.35    L 
 H-HC-0.077428        0     46.235    30.207    45.63    L 
 H-HC-0.077428        0     46.184    31.714    46.566   L 
 H-HC-0.077428        0     47.723    31.117    45.904   L 
 C-C-0.570224         0     47.853    28.754    47.36    L 
 O-O--0.555129        0     47.294    27.757    46.908   L 
 N-N--0.394918        0     49.163    28.734    47.651   L 
 H-H-0.280537         0     49.611    29.606    47.908   L 
 C-CT--0.087681       0     49.957    27.49     47.658   L 
 H-H1-0.123080        0     49.746    26.93     46.747   L 
 C-CT-0.019227        0     51.474    27.767    47.703   L 
 H-HC-0.048840        0     51.716    28.325    48.606   L 
 H-HC-0.048840        0     51.987    26.808    47.77    L 
 C-CT--0.208167       0     52.067    28.509    46.497   L 
 H-H1-0.124228        0     51.705    29.533    46.484   L 
 H-H1-0.124228        0     53.146    28.57     46.649   L 
 S-S--0.211958        0     51.789    27.762    44.869   L 
 C-CT--0.284698       0     50.369    28.749    44.329   L 
 H-H1-0.128394        0     49.516    28.569    44.981   L 
 H-H1-0.128394        0     50.625    29.809    44.362   L 
 H-H1-0.128394        0     50.1      28.477    43.31    L 
 C-C-0.599684         0     49.592    26.566    48.833   L 
 O-O--0.566424        0     49.851    25.366    48.754   L 
 N-N--0.374282        0     49.007    27.109    49.911   L 
 H-H-0.253981         0     48.736    28.084    49.851   L 
 C-CT--0.128844       0     48.717    26.404    51.169   L 
 H-HC-0.088859        0     47.655    26.496    51.384   L 
 H-HC-0.088859        0     48.971    25.35     51.074   L 
 C-C-0.580584         0     49.445    26.953    52.399   L 
 O-O--0.509157        0     49.243    26.433    53.498   L 
 N-N--0.355153        0     50.28     27.989    52.245   L 
 H-H-0.262417         0     50.377    28.398    51.326   L 
 C-CT--0.101497       0     51.005    28.624    53.355   L 
 H-H1-0.136951        0     51.426    27.844    53.993   L 
 C-CT--0.144399       0     52.152    29.504    52.807   L 
 H-HC-0.052533        0     51.714    30.36     52.296   L 
 H-HC-0.052533        0     52.724    29.895    53.651   L 
 C-CT-0.191982        0     53.135    28.807    51.847   L 
 H-HC-0.000825        0     52.589    28.392    51.      L 
 C-CT--0.123036       0     54.15     29.822    51.304   L 
 H-HC-0.022376        0     53.63     30.616    50.77    L 
 H-HC-0.022376        0     54.724    30.258    52.123   L 
 H-HC-0.022376        0     54.833    29.326    50.613   L 
 C-CT--0.123036       0     53.887    27.672    52.546   L 
 H-HC-0.022376        0     54.468    28.066    53.381   L 
 H-HC-0.022376        0     53.191    26.922    52.917   L 
 H-HC-0.022376        0     54.554    27.197    51.832   L 
 C-C-0.573471         0     50.078    29.476    54.235   L 
 O-O--0.557847        0     48.978    29.855    53.825   L 
 N-N--0.423392        0     50.567    29.85     55.415   L 
 H-H-0.306811         0     51.442    29.439    55.722   L 
 C-CT-0.031633        0     49.955    30.841    56.297   L 
 H-H1-0.065100        0     49.34     31.493    55.682   L 
 C-CT-0.074772        0     49.064    30.14     57.345   L 
 H-HC--0.003535       0     49.413    29.12     57.515   L 
 H-HC--0.003535       0     49.138    30.66     58.295   L 
 C-CT--0.033909       0     47.582    30.111    56.946   L 
 H-HC--0.004135       0     47.458    29.451    56.086   L 
 H-HC--0.004135       0     47.002    29.704    57.773   L 
 C-C-0.765188         0     47.038    31.5      56.608   L 
 O-O2--0.824035       0     47.399    32.489    57.292   L 
 O-O2--0.824035       0     46.302    31.625    55.601   L 
 C-C-0.469735         0     50.996    31.775    56.939   L 
 O-O--0.592528        0     52.202    31.627    56.729   L 
 N-N--0.506799        0     50.521    32.794    57.663   L 
 H-H-0.351021         0     49.518    32.845    57.815   L 
 C-CT-0.119066        0     51.349    33.906    58.141   L 
 H-H1-0.137761        0     51.788    34.361    57.259   L 
 C-CT--0.122638       0     50.476    34.958    58.852   L    H-H4     1168  0.        0. 
 H-HC-0.086329        0     49.855    34.464    59.6     L 
 H-HC-0.086329        0     51.129    35.651    59.385   L 
 C-CC--0.001547       0     49.607    35.795    57.944   H 
 N-NA--0.205785       0     48.463    36.469    58.306   H 
 H-H-0.318273         0     47.999    36.451    59.21    H 
 C-CR-0.147273        0     48.039    37.164    57.241   H 
 H-H5-0.122182        0     47.152    37.786    57.243   H 
 N-NB--0.601482       0     48.838    36.957    56.171   H 
 C-CV-0.043744        0     49.855    36.112    56.634   H 
 H-H4-0.110157        0     50.692    35.76     56.048   H 
 C-C-0.515947         0     52.546    33.516    59.031   L 
 O-O--0.599831        0     52.499    32.575    59.827   L 
 N-N--0.541430        0     53.594    34.335    58.959   L 
 H-H-0.345415         0     53.504    35.155    58.366   L 
 C-CT-0.118140        0     54.828    34.248    59.749   L 
 H-H1-0.142177        0     54.796    33.385    60.415   L 
 C-CT-0.146998        0     56.015    34.059    58.784   L 
 H-H1-0.040081        0     55.842    33.156    58.198   L 
 H-H1-0.040081        0     56.066    34.909    58.102   L 
 O-OH--0.640312       0     57.259    33.935    59.451   L 
 H-HO-0.446255        0     57.899    33.509    58.838   L 
 C-C-0.483424         0     54.987    35.515    60.609   L 
 O-O--0.580829        0     54.299    36.517    60.39    L 
 N-N--0.387353        0     55.901    35.49     61.581   L 
 H-H-0.300605         0     56.463    34.649    61.69    L 
 C-CT-0.037470        0     56.188    36.606    62.49    L 
 H-H1-0.152255        0     55.569    37.464    62.222   L 
 C-CT--0.032112       0     55.843    36.188    63.934   L 
 H-HC-0.030995        0     56.338    35.244    64.168   L 
 H-HC-0.030995        0     56.209    36.946    64.627   L 
 C-CT--0.020264       0     54.328    36.044    64.157   L 
 H-HC-0.030791        0     53.853    37.009    63.984   L 
 H-HC-0.030791        0     53.922    35.329    63.441   L 
 C-C-0.667812         0     53.966    35.57     65.566   L 
 O-O--0.628483        0     54.729    35.677    66.522   L 
 N-N--0.883393        0     52.787    35.022    65.767   L 
 H-H-0.408312         0     52.643    34.558    66.66    L 
 H-H-0.408312         0     52.137    34.876    65.      L 
 C-C-0.418577         0     57.646    37.085    62.353   L 
 O-O--0.565310        0     58.118    37.895    63.155   L 
 N-N--0.558201        -1    58.367    36.587    61.346   L 
 H-H-0.319676         -1    57.922    35.909    60.739   L 
 C-CT-0.007225        -1    59.72     36.994    60.967   L 
 H-H1-0.082375        -1    60.375    36.774    61.808   L 
 C-CT--0.047555       -1    60.136    36.106    59.787   L 
 H-HC--0.014836       -1    59.949    35.059    60.034   L 
 H-HC--0.014836       -1    59.522    36.364    58.924   L 
 C-C-0.745168         -1    61.61     36.269    59.433   L 
 O-O2--0.730385       -1    61.926    37.172    58.627   L 
 O-O2--0.730385       -1    62.44     35.52     60.005   L 
 C-C-0.443199         -1    59.809    38.497    60.581   L 
 O-O--0.501445        -1    58.853    39.029    60.009   L 
 N-N--0.088116        -1    60.931    39.196    60.857   L 
 C-CT--0.011906       -1    62.049    38.731    61.662   L 
 H-H1-0.043951        -1    62.72     38.16     61.024   L 
 H-H1-0.043950        -1    61.731    38.142    62.522   L 
 C-CT-0.013059        -1    62.769    39.98     62.145   L 
 H-HC-0.019574        -1    63.823    39.783    62.332   L 
 H-HC-0.019574        -1    62.283    40.366    63.039   L 
 C-CT--0.003351       -1    62.557    40.944    60.987   L 
 H-HC-0.019352        -1    63.292    40.734    60.21    L 
 H-HC-0.019352        -1    62.625    41.985    61.304   L 
 C-CT--0.034577       -1    61.153    40.596    60.481   L 
 H-H1-0.059977        -1    60.425    41.206    61.017   L 
 C-C-0.333720         -1    61.068    40.938    58.986   L 
 O-O--0.434559        -1    60.887    42.115    58.672   L 
 N-N--0.374282        -1    61.219    39.975    58.063   L 
[...]
   2229          1    20001030       51.408000   32.256000   70.818000
   2230          8    20001021       60.963000   32.538000   68.115000
   2231          1    20001030       61.506000   33.102000   67.510000
   2232          1    20001030       60.119000   32.551000   67.592000
   2233          8    20001021       55.403000   24.451000   65.376000
   2234          1    20001030       55.478000   25.387000   65.097000
   2235          1    20001030       55.379000   24.559000   66.352000
   2236          8    20001021       55.554000   39.455000   66.450000
   2237          1    20001030       55.725000   40.184000   67.097000
   2238          1    20001030       54.667000   39.168000   66.771000
   2239          8    20001021       37.521000   25.916000   58.377000
   2240          1    20001030       38.383000   26.308000   58.656000
   2241          1    20001030       36.999000   26.050000   59.191000
   2242          8    20001021       58.207000   38.853000   66.246000
   2243          1    20001030       57.257000   39.010000   66.456000
   2244          1    20001030       58.195000   37.877000   66.138000
   2245          8    20001021       50.265000   38.778000   71.322000
   2246          1    20001030       49.317000   38.615000   71.086000
   2247          1    20001030       50.631000   37.895000   71.065000
   2248          8    20001021       45.809000   38.479000   66.134000
   2249          1    20001030       45.988000   37.560000   65.821000
   2250          1    20001030       45.271000   38.269000   66.930000
   2251          8    20001021       52.665000   23.776000   59.282000
   2252          1    20001030       53.535000   23.683000   58.816000
   2253          1    20001030       52.395000   24.659000   58.941000
   2254          8    20001021       43.519000   24.229000   57.960000
   2255          1    20001030       44.466000   24.345000   57.711000
   2256          1    20001030       43.597000   24.372000   58.934000
   2257          8    20001021       41.846000   22.934000   60.879000
   2258          1    20001030       42.591000   23.567000   60.757000
   2259          1    20001030       41.387000   23.340000   61.629000
   2260          8    20001021       63.861000   28.043000   63.233000
   2261          1    20001030       62.916000   28.140000   63.004000
   2262          1    20001030       64.101000   28.979000   63.409000
   2263          8    20001021       37.044000   41.994000   57.632000
   2264          1    20001030       36.161000   41.943000   58.032000
   2265          1    20001030       37.465000   41.193000   58.018000
   2266          8    20001021       54.787000   30.616000   64.894000
   2267          1    20001030       54.230000   29.815000   65.026000
   2268          1    20001030       54.631000   31.069000   65.757000
   2269          8    20001021       53.233000   28.380000   61.005000
   2270          1    20001030       52.728000   28.901000   60.328000
   2271          1    20001030       54.142000   28.499000   60.628000
   2272          8    20001021       40.245000   21.617000   54.582000
   2273          1    20001030       40.884000   21.909000   55.286000
   2274          1    20001030       39.404000   21.853000   55.038000
   2275          8    20001021       58.992000   28.199000   58.318000
   2276          1    20001030       59.280000   29.129000   58.415000
   2277          1    20001030       58.110000   28.312000   57.925000
   2278          8    20001021       55.685000   21.620000   60.207000
   2279          1    20001030       55.406000   22.176000   59.427000
   2280          1    20001030       56.662000   21.779000   60.144000
   2281          8    20001021       47.491000   31.191000   64.069000
   2282          1    20001030       47.996000   30.819000   64.833000
   2283          1    20001030       47.150000   30.348000   63.680000
   2284          8    20001021       53.402000   43.172000   65.032000
   2285          1    20001030       52.998000   43.999000   64.653000
   2286          1    20001030       53.385000   43.424000   65.984000
   2287          8    20001021       37.666000   36.121000   66.198000
   2288          1    20001030       38.020000   35.506000   65.510000
   2289          1    20001030       36.725000   36.147000   65.922000
   2290          8    20001021       57.779000   23.439000   64.502000
   2291          1    20001030       56.861000   23.575000   64.848000
   2292          1    20001030       57.717000   24.029000   63.707000
   2293          8    20001021       60.726000   29.787000   65.480000
   2294          1    20001030       60.777000   28.847000   65.768000
   2295          1    20001030       60.325000   29.673000   64.591000
   2296          8    20001021       60.530000   42.420000   63.636000
   2297          1    20001030       60.258000   41.488000   63.826000
   2298          1    20001030       59.719000   42.713000   63.150000
   2299          8    20001021       63.119000   30.868000   66.183000
   2300          1    20001030       63.462000   30.020000   66.536000
   2301          1    20001030       62.197000   30.593000   65.956000
   2302          8    20001021       53.607000   36.408000   68.898000
   2303          1    20001030       54.340000   36.564000   69.544000
   2304          1    20001030       54.134000   36.084000   68.132000
   2305          8    20001021       57.383000   37.274000   68.771000
   2306          1    20001030       57.751000   38.145000   69.037000
   2307          1    20001030       56.706000   37.166000   69.483000
   2308          8    20001021       60.565000   38.568000   67.593000
   2309          1    20001030       60.547000   37.595000   67.756000
   2310          1    20001030       59.654000   38.689000   67.238000
   2311          8    20001021       52.639000   33.718000   68.312000
   2312          1    20001030       52.277000   33.051000   68.944000
   2313          1    20001030       52.798000   34.464000   68.916000
   2314          8    20001021       48.273000   39.478000   67.969000
   2315          1    20001030       47.619000   40.032000   67.488000
   2316          1    20001030       48.581000   38.914000   67.214000
   2317          8    20001021       58.939000   36.366000   65.317000
   2318          1    20001030       59.194000   35.510000   64.894000
   2319          1    20001030       58.754000   36.892000   64.507000
   2320          8    20001021       55.942000   42.436000   64.074000
   2321          1    20001030       55.016000   42.698000   64.283000
   2322          1    20001030       55.818000   41.474000   63.927000
   2323          8    20001021       61.546000   34.186000   62.275000
   2324          1    20001030       61.807000   34.583000   61.416000
   2325          1    20001030       62.185000   33.435000   62.311000
   2326          8    20001021       55.650000   30.448000   70.202000
   2327          1    20001030       55.569000   30.774000   71.127000
   2328          1    20001030       55.804000   31.309000   69.742000
   2329          8    20001021       61.720000   34.295000   66.041000
   2330          1    20001030       62.420000   34.814000   65.572000
   2331          1    20001030       61.143000   34.078000   65.279000
   2332          8    20001021       57.075000   34.888000   67.533000
   2333          1    20001030       57.307000   35.746000   67.975000
   2334          1    20001030       56.248000   35.181000   67.075000
   2335          8    20001021       53.423000   20.895000   57.619000
   2336          1    20001030       52.536000   21.264000   57.834000
   2337          1    20001030       53.973000   21.705000   57.768000
   2338          8    20001021       60.485000   23.018000   61.370000
   2339          1    20001030       60.260000   22.551000   62.211000
   2340          1    20001030       60.344000   23.949000   61.660000
   2341          8    20001021       57.940000   29.297000   69.199000
   2342          1    20001030       57.953000   29.664000   68.286000
   2343          1    20001030       57.040000   29.574000   69.481000
   2344          8    20001021       59.042000   25.719000   59.405000
   2345          1    20001030       58.085000   25.754000   59.630000
   2346          1    20001030       59.142000   26.622000   59.011000
   2347          8    20001021       57.044000   29.149000   64.582000
   2348          1    20001030       56.242000   29.729000   64.580000
   2349          1    20001030       57.445000   29.457000   65.432000
   2350          8    20001021       51.071000   36.552000   69.962000
   2351          1    20001030       50.732000   36.450000   69.036000
   2352          1    20001030       52.038000   36.539000   69.765000
   2353          8    20001021       57.502000   25.250000   62.469000
   2354          1    20001030       58.451000   25.399000   62.248000
   2355          1    20001030       57.113000   25.326000   61.564000
   2356          8    20001021       60.213000   25.553000   62.393000
   2357          1    20001030       60.532000   26.450000   62.143000
   2358          1    20001030       60.525000   25.533000   63.332000
   2359          8    20001021       52.360000   30.025000   67.319000
   2360          1    20001030       52.035000   30.241000   66.416000
   2361          1    20001030       53.095000   30.675000   67.388000
   2362          8    20001021       49.583000   31.187000   68.598000
   2363          1    20001030       50.470000   31.384000   68.985000
   2364          1    20001030       49.322000   30.432000   69.178000
   2365          8    20001021       61.898000   29.764000   60.179000
   2366          1    20001030       62.666000   30.344000   59.967000
   2367          1    20001030       61.221000   30.162000   59.584000
   2368          8    20001021       46.223000   24.882000   62.047000
   2369          1    20001030       46.601000   25.526000   62.691000
   2370          1    20001030       45.775000   24.274000   62.687000
   2371          8    20001021       56.151000   32.847000   69.078000
   2372          1    20001030       56.536000   33.564000   68.517000
   2373          1    20001030       56.474000   33.161000   69.961000
   2374          8    20001021       44.468000   35.431000   69.475000
   2375          1    20001030       44.486000   36.385000   69.216000
   2376          1    20001030       43.744000   35.115000   68.909000
   2377          8    20001021       47.201000   35.534000   69.631000
   2378          1    20001030       47.403000   34.670000   69.198000
   2379          1    20001030       46.215000   35.475000   69.639000
   2380          8    20001021       54.329000   26.768000   67.359000
   2381          1    20001030       53.720000   27.069000   68.063000
   2382          1    20001030       54.749000   26.000000   67.798000
   2383          8    20001021       49.235000   35.177000   71.447000
   2384          1    20001030       49.903000   35.712000   70.963000
   2385          1    20001030       48.440000   35.362000   70.905000
   2386          8    20001021       45.041000   30.298000   67.566000
   2387          1    20001030       45.742000   29.667000   67.279000
   2388          1    20001030       45.437000   30.584000   68.426000
   2389          8    20001021       45.861000   25.448000   66.248000
   2390          1    20001030       45.995000   25.786000   67.162000
   2391          1    20001030       45.889000   24.478000   66.425000
   2392          8    20001021       43.662000   25.807000   64.794000
   2393          1    20001030       44.485000   25.773000   65.350000
   2394          1    20001030       43.860000   25.049000   64.197000
   2395          8    20001021       51.100000   25.781000   67.859000
   2396          1    20001030       51.510000   25.188000   68.537000
   2397          1    20001030       51.475000   26.641000   68.179000
   2398          8    20001021       46.102000   26.705000   68.674000
   2399          1    20001030       46.476000   27.492000   68.218000
   2400          1    20001030       46.679000   26.673000   69.465000
   2401          8    20001021       47.163000   26.507000   64.135000
   2402          1    20001030       46.599000   26.126000   64.859000
   2403          1    20001030       47.997000   26.616000   64.654000
   2404          8    20001021       51.141000   27.439000   64.548000
   2405          1    20001030       52.067000   27.624000   64.850000
   2406          1    20001030       51.079000   28.139000   63.848000
   2407          8    20001021       53.521000   26.083000   62.380000
   2408          1    20001030       53.432000   26.905000   61.843000
   2409          1    20001030       54.362000   26.271000   62.841000
   2410          8    20001021       49.102000   30.451000   66.077000
   2411          1    20001030       49.333000   30.765000   66.989000
   2412          1    20001030       49.988000   30.560000   65.655000
   2413          8    20001021       42.497000   29.143000   67.340000
   2414          1    20001030       43.378000   29.570000   67.458000
   2415          1    20001030       42.223000   29.091000   68.289000
   2416          8    20001021       51.275000   21.099000   61.475000
   2417          1    20001030       50.672000   21.880000   61.462000
   2418          1    20001030       52.135000   21.576000   61.591000
   2419          8    20001021       55.802000   26.803000   63.895000
   2420          1    20001030       56.462000   26.272000   63.382000
   2421          1    20001030       56.361000   27.595000   64.089000
   2422          8    20001021       53.192000   29.694000   71.136000
   2423          1    20001030       53.610000   30.121000   71.931000
   2424          1    20001030       53.998000   29.696000   70.554000
   2425          8    20001021       50.913000   23.831000   65.938000
   2426          1    20001030       51.040000   24.635000   66.493000
   2427          1    20001030       51.723000   23.890000   65.378000
   2428          8    20001021       46.246000   24.791000   57.816000
   2429          1    20001030       46.901000   24.418000   58.434000
   2430          1    20001030       46.786000   24.870000   57.001000
   2431          8    20001021       48.696000   29.223000   70.291000
   2432          1    20001030       48.334000   28.311000   70.384000
   2433          1    20001030       49.438000   29.156000   70.944000
   2434          8    20001021       49.106000   26.822000   66.152000
   2435          1    20001030       49.630000   26.364000   66.851000
   2436          1    20001030       49.861000   27.102000   65.568000
   2437          8    20001021       50.953000   21.905000   58.242000
   2438          1    20001030       51.488000   22.513000   58.811000
   2439          1    20001030       50.343000   22.572000   57.847000
   2440          8    20001021       44.299000   29.811000   61.554000
   2441          1    20001030       43.791000   30.204000   62.300000
   2442          1    20001030       45.121000   29.556000   62.031000
   2443          8    20001021       42.029000   32.828000   62.075000
   2444          1    20001030       42.173000   32.016000   62.616000
   2445          1    20001030       41.043000   32.874000   62.115000
   2446          8    20001021       47.286000   28.639000   67.064000
   2447          1    20001030       47.840000   27.882000   66.735000
   2448          1    20001030       47.874000   29.376000   66.760000
   2449          8    20001021       55.639000   28.611000   59.849000
   2450          1    20001030       55.804000   28.252000   58.934000
   2451          1    20001030       56.054000   29.497000   59.723000
   2452          8    20001021       52.511000   21.066000   65.077000
   2453          1    20001030       53.373000   20.602000   64.943000
   2454          1    20001030       52.781000   21.974000   64.790000
   2455          8    20001021       39.908000   27.649000   64.380000
   2456          1    20001030       39.748000   27.354000   63.457000
   2457          1    20001030       40.871000   27.848000   64.328000
   2458          8    20001021       40.202000   33.183000   57.212000
   2459          1    20001030       39.559000   33.097000   56.458000
   2460          1    20001030       40.819000   32.452000   56.961000
   2461          8    20001021       50.919000   25.514000   62.611000
   2462          1    20001030       51.904000   25.557000   62.467000
   2463          1    20001030       50.875000   26.093000   63.412000
   2464          8    20001021       49.895000   21.785000   64.506000
   2465          1    20001030       50.129000   22.604000   65.018000
   2466          1    20001030       50.771000   21.325000   64.580000
   2467          8    20001021       43.785000   24.859000   60.608000
   2468          1    20001030       44.664000   24.934000   61.042000
   2469          1    20001030       43.497000   25.808000   60.680000
   2470          8    20001021       42.663000   20.563000   44.795000
   2471          1    20001030       42.029000   19.874000   45.071000
   2472          1    20001030       42.201000   20.938000   44.015000
   2473          8    20001021       49.334000   19.308000   44.846000
   2474          1    20001030       48.986000   19.577000   43.972000
   2475          1    20001030       48.510000   19.156000   45.341000
   2476          8    20001021       41.585000   25.100000   54.667000
   2477          1    20001030       41.407000   25.538000   55.523000
   2478          1    20001030       40.761000   25.325000   54.178000
   2479          8    20001021       43.046000   27.440000   60.803000
   2480          1    20001030       42.290000   27.933000   60.422000
   2481          1    20001030       43.621000   28.192000   61.067000
   2482          8    20001021       42.830000   30.775000   63.682000
   2483          1    20001030       43.050000   31.231000   64.525000
   2484          1    20001030       42.649000   29.868000   64.033000
   2485          8    20001021       36.837000   38.724000   62.496000
   2486          1    20001030       36.063000   38.480000   63.064000
   2487          1    20001030       36.438000   38.517000   61.615000
   2488          8    20001021       40.275000   36.122000   67.667000
   2489          1    20001030       40.745000   35.403000   67.188000
   2490          1    20001030       39.414000   36.105000   67.199000
   2491          8    20001021       33.941000   32.494000   51.692000
   2492          1    20001030       34.826000   32.555000   51.267000
   2493          1    20001030       33.510000   33.273000   51.279000
 ---------------------------------------------------------------------
 Rotational constants (GHZ):      0.0002426      0.0002144      0.0002024
 Leave Link  202 at Fri Nov  6 17:05:22 2009, MaxMem=  393216000 cpu:       0.1
 (Enter XXXXXXX/x86_64/g09a02/g09/l120.exe)
 ONIOM: Cut between C /H  1021 and C  1024 factor= 0.723886 0.723886
 ONIOM: Cut between C /H  1038 and C  1041 factor= 0.723886 0.723886
 ONIOM: Cut between C /H  1080 and C  1083 factor= 0.723886 0.723886
 ONIOM: Cut between C /H  1165 and C  1168 factor= 0.723886 0.723886
 ONIOM: Cut between C /H  1620 and S  1617 factor= 0.761575 0.761575
 ONIOM: saving gridpoint 17
 ONIOM: generating point  3 -- low level on real system.
 Leave Link  120 at Fri Nov  6 17:05:23 2009, MaxMem=  393216000 cpu:       0.0
 (Enter XXXXXXX/x86_64/g09a02/g09/l301.exe)
 Standard basis: Dummy (5D, 7F)
 The combination of multiplicity 1 and  3505 electrons is impossible.
 Error termination via Lnk1e in XXXXXXX/x86_64/g09a02/g09/l301.exe at Fri Nov  6 17:05:23 2009.
 Job cpu time:  0 days  0 hours  0 minutes  2.1 seconds.
 File lengths (MBytes):  RWF=     52 Int=      0 D2E=      0 Chk=      1 Scr=      1
